 DBCSR| CPU Multiplication driver                                           XSMM (U)
 DBCSR| Multrec recursion limit                                              512 (U)
 DBCSR| Multiplication stack size                                           1000 (D)
 DBCSR| Maximum elements for images                                    UNLIMITED (U)
 DBCSR| Multiplicative factor virtual images                                   1 (U)
 DBCSR| Use multiplication densification                                       T (D)
 DBCSR| Multiplication size stacks                                             3 (U)
 DBCSR| Use memory pool for CPU allocation                                     F (U)
 DBCSR| Number of 3D layers                                               SINGLE (U)
 DBCSR| Use MPI memory allocation                                              F (U)
 DBCSR| Use RMA algorithm                                                      F (U)
 DBCSR| Use Communication thread                                               T (U)
 DBCSR| Communication thread load                                             30 (D)
 DBCSR| MPI: My process id                                                     0
 DBCSR| MPI: Number of processes                                               1
 DBCSR| OMP: Current number of threads                                        16
 DBCSR| OMP: Max number of threads                                            16
 DBCSR| Split modifier for TAS multiplication algorithm                  1.0E+00 (U)


  **** **** ******  **  PROGRAM STARTED AT               2026-01-22 06:30:07.443
 ***** ** ***  *** **   PROGRAM STARTED ON                          a594f66b62ca
 **    ****   ******    PROGRAM STARTED BY                             <unknown>
 ***** **    ** ** **   PROGRAM PROCESS ID                                   678
  **** **  *******  **  PROGRAM STARTED IN                             /mnt/cp2k

 CP2K| version string:                 CP2K version 2026.1 (Development Version)
 CP2K| source code revision number:                                   4e96ea1a00
 CP2K| cp2kflags: omp libint fftw3 libxc elpa parallel scalapack mpi_f08 cosma a
 CP2K|            ce deepmd xsmm dbcsr_acc plumed2 spglib libdftd4 mctc-lib tbli
 CP2K|            ite sirius libvori libbqb libtorch mimic offload_cuda libvdwxc
 CP2K|            c hdf5 trexio libsmeagol greenx
 CP2K| is freely available from                            https://www.cp2k.org/
 CP2K| Program compiled at                                   2026-01-16 05:48:39
 CP2K| Program compiled on                                                      
 CP2K| Program compiled for                                               x86_64
 CP2K| Data directory path                     /opt/cp2k/install/share/cp2k/data
 CP2K| Input file name                                               geo_opt.inp

 GLOBAL| Force Environment number                                              1
 GLOBAL| Basis set file name                                    BASIS_MOLOPT_UZH
 GLOBAL| Potential file name                                       POTENTIAL_UZH
 GLOBAL| MM Potential file name                                     MM_POTENTIAL
 GLOBAL| Coordinate file name           conventional_cell_slab_020_L1_2x2_packed
 GLOBAL| Method name                                                        CP2K
 GLOBAL| Project name                                     gypsum_slab_nh4_geoopt
 GLOBAL| Run type                                                        GEO_OPT
 GLOBAL| FFT library                                                       FFTW3
 GLOBAL| Diagonalization library                                            ELPA
 GLOBAL| Cholesky decomposition library                                ScaLAPACK
 GLOBAL| DGEMM library                                                      BLAS
 GLOBAL| Minimum number of eigenvectors for ELPA usage                        16
 GLOBAL| Orthonormality check for eigenvectors                          DISABLED
 GLOBAL| Matrix multiplication library                                     COSMA
 GLOBAL| All-to-all communication in single precision                          F
 GLOBAL| FFTs using library dependent lengths                                  T
 GLOBAL| Grid backend                                                       AUTO
 GLOBAL| Global print level                                                  LOW
 GLOBAL| MPI I/O enabled                                                       T
 GLOBAL| Total number of message passing processes                             1
 GLOBAL| Number of distributed systems (nodes)                                 1
 GLOBAL| Number of threads for this process                                   16
 GLOBAL| This output is from process                                           0
 GLOBAL| OpenMP stack size per thread (OMP_STACKSIZE)                        16M
 GLOBAL| CPU model name                           Intel(R) Core(TM) Ultra 7 265K
 GLOBAL| CPUID                                                              1002

 MEMORY| system memory details [Kb]
 MEMORY|                        rank 0           min           max       average
 MEMORY| MemTotal             32486564      32486564      32486564      32486564
 MEMORY| MemFree              17946792      17946792      17946792      17946792
 MEMORY| Buffers                134276        134276        134276        134276
 MEMORY| Cached                2398292       2398292       2398292       2398292
 MEMORY| Slab                   276720        276720        276720        276720
 MEMORY| SReclaimable           154680        154680        154680        154680
 MEMORY| MemLikelyFree        20634040      20634040      20634040      20634040


 GENERATE|  Preliminary Number of Bonds generated:                             0
 GENERATE|  Achieved consistency in connectivity generation.

 *******************************************************************************
 *******************************************************************************
 **                                                                           **
 **     #####                         ##              ##                      **
 **    ##   ##            ##          ##              ##                      **
 **   ##     ##                       ##            ######                    **
 **   ##     ##  ##   ##  ##   #####  ##  ##   ####   ##    #####    #####    **
 **   ##     ##  ##   ##  ##  ##      ## ##   ##      ##   ##   ##  ##   ##   **
 **   ##  ## ##  ##   ##  ##  ##      ####     ###    ##   ######   ######    **
 **    ##  ###   ##   ##  ##  ##      ## ##      ##   ##   ##       ##        **
 **     #######   #####   ##   #####  ##  ##  ####    ##    #####   ##        **
 **           ##                                                    ##        **
 **                                                                           **
 **                                                ... make the atoms dance   **
 **                                                                           **
 **            Copyright (C) by CP2K developers group (2000-2026)             **
 **                      J. Chem. Phys. 152, 194103 (2020)                    **
 **                                                                           **
 *******************************************************************************


 TOTAL NUMBERS AND MAXIMUM NUMBERS

  Total number of            - Atomic kinds:                                   6
                             - Atoms:                                        296
                             - Shell sets:                                   296
                             - Shells:                                      1627
                             - Primitive Cartesian functions:               1478
                             - Cartesian basis functions:                   4291
                             - Spherical basis functions:                   3995

  Maximum angular momentum of- Orbital basis functions:                        2
                             - Local part of the GTH pseudopotential:          2
                             - Non-local part of the GTH pseudopotential:      3


 SCF PARAMETERS         Density guess:                                    ATOMIC
                        --------------------------------------------------------
                        max_scf:                                             150
                        max_scf_history:                                       0
                        max_diis:                                              4
                        --------------------------------------------------------
                        eps_scf:                                        1.00E-06
                        eps_scf_history:                                0.00E+00
                        eps_diis:                                       0.00E+00
                        eps_eigval:                                     1.00E-05
                        --------------------------------------------------------
                        level_shift [a.u.]:                             0.000000
                        --------------------------------------------------------
                        Outer loop SCF in use 
                        No variables optimised in outer loop
                        eps_scf                                         1.00E-06
                        max_scf                                               30
                        No outer loop optimization
                        step_size                                       5.00E-01

 BFGS| Use rational function optimization for step estimation:                NO
 BFGS| Use model Hessian for initial guess:                                  YES
 BFGS| Restart Hessian:                                                       NO
 BFGS| Trust radius:                                                       0.472

 *******************************************************************************
 ***                     STARTING GEOMETRY OPTIMIZATION                      ***
 ***                                   BFGS                                  ***
 *******************************************************************************

 Extrapolation method: initial_guess

 Spin 1

 Number of electrons:                                                        588
 Number of occupied orbitals:                                                588
 Number of molecular orbitals:                                               588

 Spin 2

 Number of electrons:                                                        588
 Number of occupied orbitals:                                                588
 Number of molecular orbitals:                                               588

 Number of orbital functions:                                               3995
 Number of independent orbital functions:                                   3995


 SCF WAVEFUNCTION OPTIMIZATION

  ----------------------------------- OT ---------------------------------------
  Minimizer      : DIIS                : direct inversion
                                         in the iterative subspace
                                         using   7 DIIS vectors
                                         safer DIIS on
  Preconditioner : FULL_SINGLE_INVERSE : inversion of 
                                         H + eS - 2*(Sc)(c^T*H*c+const)(Sc)^T
  Precond_solver : INVERSE_UPDATE
  stepsize       :    0.10000000                  energy_gap     :    0.10000000
  eps_taylor     :   0.10000E-15                  max_taylor     :             4
  ----------------------------------- OT ---------------------------------------

  Step     Update method      Time    Convergence         Total energy    Change
  ------------------------------------------------------------------------------
     1 OT DIIS     0.10E+00   53.4     0.03003318     -2625.5524335894 -2.63E+03
     2 OT DIIS     0.10E+00   21.3     0.01682353     -2761.4340986579 -1.36E+02
     3 OT DIIS     0.10E+00   20.0     0.00490041     -2796.7981202876 -3.54E+01
     4 OT DIIS     0.10E+00   16.9     0.00341025     -2806.0286933840 -9.23E+00
     5 OT DIIS     0.10E+00   16.2     0.00285651     -2814.5648389815 -8.54E+00
     6 OT DIIS     0.10E+00   15.6     0.00242752     -2837.3086706356 -2.27E+01
     7 OT DIIS     0.10E+00   15.3     0.00176406     -2842.7306184816 -5.42E+00
     8 OT DIIS     0.10E+00   20.7     0.00152808     -2851.6325151795 -8.90E+00
     9 OT DIIS     0.10E+00   18.4     0.00136026     -2860.8198136370 -9.19E+00
    10 OT DIIS     0.10E+00   27.6     0.00138368     -2865.3236431145 -4.50E+00
    11 OT DIIS     0.10E+00   19.4     0.00110211     -2870.9432384167 -5.62E+00
    12 OT DIIS     0.10E+00   19.8     0.00098760     -2872.8790901191 -1.94E+00
    13 OT DIIS     0.10E+00   14.6     0.00089603     -2876.0740140927 -3.19E+00
    14 OT DIIS     0.10E+00   14.7     0.00088669     -2882.1273500852 -6.05E+00
    15 OT DIIS     0.10E+00   16.9     0.00072545     -2882.5638973061 -4.37E-01
    16 OT DIIS     0.10E+00   19.4     0.00065621     -2884.5796818015 -2.02E+00
    17 OT DIIS     0.10E+00   19.2     0.00132015     -2887.2643494447 -2.68E+00
    18 OT DIIS     0.10E+00   18.3     0.00074952     -2887.4683063124 -2.04E-01
    19 OT DIIS     0.10E+00   17.6     0.00059067     -2888.1057441830 -6.37E-01
    20 OT DIIS     0.10E+00   14.6     0.00054064     -2888.9196676545 -8.14E-01
    21 OT DIIS     0.10E+00   15.4     0.00056658     -2891.5672575701 -2.65E+00
    22 OT DIIS     0.10E+00   15.6     0.00045613     -2891.5755574251 -8.30E-03
    23 OT DIIS     0.10E+00   15.5     0.00047571     -2892.3612827935 -7.86E-01
    24 OT DIIS     0.10E+00   14.7     0.00040927     -2893.0004033686 -6.39E-01
    25 OT DIIS     0.10E+00   14.7     0.00040054     -2893.3427842301 -3.42E-01
    26 OT DIIS     0.10E+00   20.9     0.00035164     -2895.1379172087 -1.80E+00
    27 OT DIIS     0.10E+00   18.0     0.00033094     -2895.7479313226 -6.10E-01
    28 OT DIIS     0.10E+00   15.1     0.00031730     -2895.9890190735 -2.41E-01
    29 OT DIIS     0.10E+00   14.7     0.00030956     -2896.2015173791 -2.12E-01
    30 OT DIIS     0.10E+00   15.5     0.00026927     -2897.1987267329 -9.97E-01
    31 OT DIIS     0.10E+00   15.2     0.00026231     -2897.4178890069 -2.19E-01
    32 OT DIIS     0.10E+00   15.5     0.00023524     -2898.2245046203 -8.07E-01
    33 OT DIIS     0.10E+00   15.4     0.00023411     -2898.2931350596 -6.86E-02
    34 OT DIIS     0.10E+00   21.1     0.00022306     -2898.4257975337 -1.33E-01
    35 OT DIIS     0.10E+00   18.9     0.00019756     -2898.9488839196 -5.23E-01
    36 OT DIIS     0.10E+00   19.1     0.00019691     -2899.0391848033 -9.03E-02
    37 OT DIIS     0.10E+00   18.4     0.00019101     -2899.1743685410 -1.35E-01
    38 OT DIIS     0.10E+00   19.8     0.00019346     -2899.2306625786 -5.63E-02
    39 OT DIIS     0.10E+00   14.8     0.00018493     -2899.3772337465 -1.47E-01
    40 OT DIIS     0.10E+00   15.3     0.00017989     -2899.5160285352 -1.39E-01
    41 OT DIIS     0.10E+00   20.5     0.00016187     -2899.8769980608 -3.61E-01
    42 OT DIIS     0.10E+00   17.8     0.00015877     -2899.9293448353 -5.23E-02
    43 OT DIIS     0.10E+00   14.4     0.00015706     -2899.9582010793 -2.89E-02
    44 OT SD       0.10E+00   15.5     0.00013134     -2900.5396884764 -5.81E-01
    45 OT DIIS     0.10E+00   15.6     0.00012997     -2900.5477495039 -8.06E-03
    46 OT DIIS     0.10E+00   15.7     0.00011685     -2900.8523189011 -3.05E-01
    47 OT DIIS     0.10E+00   14.2     0.00011230     -2900.8893521265 -3.70E-02
    48 OT DIIS     0.10E+00   15.0     0.00010982     -2900.9260302142 -3.67E-02
    49 OT DIIS     0.10E+00   15.2     0.00010781     -2900.9561546553 -3.01E-02
    50 OT DIIS     0.10E+00   15.7     0.00010170     -2901.1541968793 -1.98E-01
    51 OT DIIS     0.10E+00   15.2     0.00009449     -2901.2020833387 -4.79E-02
    52 OT DIIS     0.10E+00   14.3     0.00009187     -2901.2458797736 -4.38E-02
    53 OT DIIS     0.10E+00   14.8     0.00008959     -2901.2941603164 -4.83E-02
    54 OT DIIS     0.10E+00   17.9     0.00008495     -2901.3916108901 -9.75E-02
    55 OT DIIS     0.10E+00   15.5     0.00007936     -2901.4706792670 -7.91E-02
    56 OT DIIS     0.10E+00   14.7     0.00007639     -2901.4929218497 -2.22E-02
    57 OT DIIS     0.10E+00   14.7     0.00007288     -2901.5679580299 -7.50E-02
    58 OT DIIS     0.10E+00   15.5     0.00007136     -2901.6074162070 -3.95E-02
    59 OT DIIS     0.10E+00   15.4     0.00006624     -2901.6789467746 -7.15E-02
    60 OT DIIS     0.10E+00   15.8     0.00006453     -2901.6965444522 -1.76E-02
    61 OT DIIS     0.10E+00   19.9     0.00006118     -2901.7523202960 -5.58E-02
    62 OT DIIS     0.10E+00   19.1     0.00005937     -2901.7879360075 -3.56E-02
    63 OT DIIS     0.10E+00   17.9     0.00005791     -2901.8056990555 -1.78E-02
    64 OT DIIS     0.10E+00   18.1     0.00005321     -2901.8449155014 -3.92E-02
    65 OT DIIS     0.10E+00   17.6     0.00005112     -2901.8834325146 -3.85E-02
    66 OT DIIS     0.10E+00   14.9     0.00004980     -2901.9037063578 -2.03E-02
    67 OT DIIS     0.10E+00   14.6     0.00004910     -2901.9136579005 -9.95E-03
    68 OT DIIS     0.10E+00   19.4     0.00004356     -2901.9521859544 -3.85E-02
    69 OT DIIS     0.10E+00   15.2     0.00004219     -2901.9754738813 -2.33E-02
    70 OT DIIS     0.10E+00   14.6     0.00004085     -2901.9835674680 -8.09E-03
    71 OT DIIS     0.10E+00   15.0     0.00003987     -2901.9902477771 -6.68E-03
    72 OT DIIS     0.10E+00   15.0     0.00003732     -2902.0076109568 -1.74E-02
    73 OT DIIS     0.10E+00   15.1     0.00003662     -2902.0222689249 -1.47E-02
    74 OT DIIS     0.10E+00   19.5     0.00003197     -2902.0798283379 -5.76E-02
    75 OT DIIS     0.10E+00   14.8     0.00003132     -2902.0885037942 -8.68E-03
    76 OT DIIS     0.10E+00   15.6     0.00003035     -2902.0949663368 -6.46E-03
    77 OT DIIS     0.10E+00   15.7     0.00002988     -2902.0988568275 -3.89E-03
    78 OT DIIS     0.10E+00   15.4     0.00002885     -2902.1091628842 -1.03E-02
    79 OT DIIS     0.10E+00   16.4     0.00002734     -2902.1253676629 -1.62E-02
    80 OT DIIS     0.10E+00   19.8     0.00002589     -2902.1362377226 -1.09E-02
    81 OT DIIS     0.10E+00   15.6     0.00002477     -2902.1533919646 -1.72E-02
    82 OT DIIS     0.10E+00   13.5     0.00002459     -2902.1553328842 -1.94E-03
    83 OT SD       0.10E+00   15.7     0.00002294     -2902.1631803820 -7.85E-03
    84 OT DIIS     0.10E+00   18.9     0.00002276     -2902.1634266490 -2.46E-04
    85 OT DIIS     0.10E+00   18.2     0.00002089     -2902.1788061892 -1.54E-02
    86 OT DIIS     0.10E+00   17.2     0.00002076     -2902.1801697744 -1.36E-03
    87 OT DIIS     0.10E+00   17.0     0.00001977     -2902.1872459088 -7.08E-03
    88 OT DIIS     0.10E+00   16.7     0.00001964     -2902.1872734913 -2.76E-05
    89 OT DIIS     0.10E+00   14.0     0.00001929     -2902.1872679089  5.58E-06
    90 OT DIIS     0.10E+00   15.0     0.00001913     -2902.1893243490 -2.06E-03
    91 OT DIIS     0.10E+00   16.6     0.00001860     -2902.1971451886 -7.82E-03
    92 OT DIIS     0.10E+00   15.1     0.00001836     -2902.1980591303 -9.14E-04
    93 OT DIIS     0.10E+00   14.6     0.00001799     -2902.1991696211 -1.11E-03
    94 OT DIIS     0.10E+00   19.8     0.00001591     -2902.2145717492 -1.54E-02
    95 OT DIIS     0.10E+00   20.7     0.00001574     -2902.2155428868 -9.71E-04
    96 OT DIIS     0.10E+00   14.7     0.00001462     -2902.2252614355 -9.72E-03
    97 OT DIIS     0.10E+00   14.3     0.00001445     -2902.2268268934 -1.57E-03
    98 OT DIIS     0.10E+00   20.0     0.00001337     -2902.2349471762 -8.12E-03
    99 OT DIIS     0.10E+00   18.9     0.00001320     -2902.2363034510 -1.36E-03
   100 OT DIIS     0.10E+00   18.1     0.00001272     -2902.2393775249 -3.07E-03
   101 OT DIIS     0.10E+00   15.8     0.00001207     -2902.2453004549 -5.92E-03
   102 OT DIIS     0.10E+00   15.9     0.00001199     -2902.2458158897 -5.15E-04
   103 OT DIIS     0.10E+00   19.6     0.00001141     -2902.2513047905 -5.49E-03
   104 OT DIIS     0.10E+00   18.8     0.00001122     -2902.2520533408 -7.49E-04
   105 OT DIIS     0.10E+00   20.5     0.00001106     -2902.2527686384 -7.15E-04
   106 OT DIIS     0.10E+00   22.2     0.00001063     -2902.2532428982 -4.74E-04
   107 OT DIIS     0.10E+00   14.8     0.00001055     -2902.2536246501 -3.82E-04
   108 OT DIIS     0.10E+00   15.4     0.00001014     -2902.2558849961 -2.26E-03
   109 OT DIIS     0.10E+00   14.8     0.00000981     -2902.2572221956 -1.34E-03
   110 OT DIIS     0.10E+00   14.2     0.00000973     -2902.2578097348 -5.88E-04
   111 OT DIIS     0.10E+00   15.1     0.00000885     -2902.2642594704 -6.45E-03
   112 OT DIIS     0.10E+00   14.6     0.00000875     -2902.2649565184 -6.97E-04
   113 OT DIIS     0.10E+00   20.0     0.00000838     -2902.2685751774 -3.62E-03
   114 OT DIIS     0.10E+00   20.3     0.00000827     -2902.2692594981 -6.84E-04
   115 OT DIIS     0.10E+00   20.9     0.00000782     -2902.2729395781 -3.68E-03
   116 OT DIIS     0.10E+00   20.9     0.00000777     -2902.2733506899 -4.11E-04
   117 OT DIIS     0.10E+00   15.2     0.00000757     -2902.2755650155 -2.21E-03
   118 OT DIIS     0.10E+00   15.6     0.00000749     -2902.2761275556 -5.63E-04
   119 OT DIIS     0.10E+00   15.5     0.00000734     -2902.2764048111 -2.77E-04
   120 OT DIIS     0.10E+00   15.4     0.00000693     -2902.2793635943 -2.96E-03
   121 OT DIIS     0.10E+00   14.6     0.00000692     -2902.2794006527 -3.71E-05
   122 OT DIIS     0.10E+00   14.9     0.00000685     -2902.2797094717 -3.09E-04
   123 OT DIIS     0.10E+00   17.0     0.00000650     -2902.2807870843 -1.08E-03
   124 OT DIIS     0.10E+00   14.9     0.00000651     -2902.2809830859 -1.96E-04
   125 OT DIIS     0.10E+00   14.9     0.00000645     -2902.2810424684 -5.94E-05
   126 OT DIIS     0.10E+00   15.5     0.00000612     -2902.2834419689 -2.40E-03
   127 OT DIIS     0.10E+00   15.1     0.00000599     -2902.2845758585 -1.13E-03
   128 OT DIIS     0.10E+00   15.5     0.00000588     -2902.2857941452 -1.22E-03
   129 OT DIIS     0.10E+00   15.7     0.00000584     -2902.2859559668 -1.62E-04
   130 OT SD       0.10E+00   18.0     0.00000561     -2902.2871380488 -1.18E-03
   131 OT DIIS     0.10E+00   19.0     0.00000559     -2902.2871528287 -1.48E-05
   132 OT DIIS     0.10E+00   21.7     0.00000530     -2902.2885005569 -1.35E-03
   133 OT DIIS     0.10E+00   22.2     0.00000528     -2902.2886653261 -1.65E-04
   134 OT DIIS     0.10E+00   21.9     0.00000508     -2902.2900519481 -1.39E-03
   135 OT DIIS     0.10E+00   19.1     0.00000504     -2902.2902264186 -1.74E-04
   136 OT DIIS     0.10E+00   15.1     0.00000488     -2902.2905987636 -3.72E-04
   137 OT DIIS     0.10E+00   16.7     0.00000484     -2902.2908217645 -2.23E-04
   138 OT DIIS     0.10E+00   21.8     0.00000465     -2902.2919191009 -1.10E-03
   139 OT DIIS     0.10E+00   22.2     0.00000462     -2902.2922318752 -3.13E-04
   140 OT DIIS     0.10E+00   19.4     0.00000442     -2902.2938912687 -1.66E-03
   141 OT DIIS     0.10E+00   15.0     0.00000440     -2902.2940668333 -1.76E-04
   142 OT DIIS     0.10E+00   15.1     0.00000424     -2902.2950562710 -9.89E-04
   143 OT DIIS     0.10E+00   15.0     0.00000421     -2902.2952444857 -1.88E-04
   144 OT DIIS     0.10E+00   20.8     0.00000413     -2902.2957603957 -5.16E-04
   145 OT DIIS     0.10E+00   19.5     0.00000407     -2902.2964123185 -6.52E-04
   146 OT DIIS     0.10E+00   21.0     0.00000404     -2902.2966253690 -2.13E-04
   147 OT DIIS     0.10E+00   19.6     0.00000393     -2902.2973063535 -6.81E-04
   148 OT SD       0.10E+00   16.4     0.00000391     -2902.2976966333 -3.90E-04
   149 OT DIIS     0.10E+00   14.6     0.00000390     -2902.2977038120 -7.18E-06
   150 OT DIIS     0.10E+00   14.9     0.00000377     -2902.2985224657 -8.19E-04

  Leaving inner SCF loop after reaching   150 steps.


  Electronic density on regular grids:      -1175.9999999996        0.0000000004
  Core density on regular grids:             1175.9999999995       -0.0000000005
  Total charge density on r-space grids:       -0.0000000001
  Total charge density g-space grids:          -0.0000000001

  Overlap energy of the core charge distribution:               0.00001523920500
  Self energy of the core charge distribution:              -7164.62956309980382
  Core Hamiltonian energy:                                   1986.34253283493831
  Hartree energy:                                            2903.71196727256665
  Exchange-correlation energy:                               -626.28490115521618
  Dispersion energy:                                           -1.43857355737786

  Total energy:                                             -2902.29852246568771

  outer SCF iter =    1 RMS gradient =   0.38E-05 energy =      -2902.2985224657

  ----------------------------------- OT ---------------------------------------
  Minimizer      : DIIS                : direct inversion
                                         in the iterative subspace
                                         using   7 DIIS vectors
                                         safer DIIS on
  Preconditioner : FULL_SINGLE_INVERSE : inversion of 
                                         H + eS - 2*(Sc)(c^T*H*c+const)(Sc)^T
  Precond_solver : INVERSE_UPDATE
  stepsize       :    0.10000000                  energy_gap     :    0.10000000
  eps_taylor     :   0.10000E-15                  max_taylor     :             4
  ----------------------------------- OT ---------------------------------------

  Step     Update method      Time    Convergence         Total energy    Change
  ------------------------------------------------------------------------------


     Lanczos converged:  T threshold:   0.100E-02
     Est. extremal eigenvalues:    0.114E+02   0.505E+01
     Est. condition number :    0.226E+01
     Hotelling iter   1 1.00000000   0.174E+00       1.505   169229.065



     Lanczos converged:  T threshold:   0.100E-02
     Est. extremal eigenvalues:    0.114E+02   0.505E+01
     Est. condition number :    0.226E+01
     Hotelling iter   1 1.00000000   0.174E+00       2.420   105275.164

     1 OT DIIS     0.10E+00   47.2     0.00000629     -2902.2987739047 -2.51E-04
     2 OT DIIS     0.10E+00   16.8     0.00000627     -2902.2987924692 -1.86E-05
     3 OT DIIS     0.10E+00   14.1     0.00000498     -2902.3006466762 -1.85E-03
     4 OT DIIS     0.10E+00   14.6     0.00000426     -2902.3017805834 -1.13E-03
     5 OT DIIS     0.10E+00   13.8     0.00000423     -2902.3020070561 -2.26E-04
     6 OT DIIS     0.10E+00   16.4     0.00000364     -2902.3032243075 -1.22E-03
     7 OT DIIS     0.10E+00   14.9     0.00000357     -2902.3033261035 -1.02E-04
     8 OT DIIS     0.10E+00   15.3     0.00000320     -2902.3042810556 -9.55E-04
     9 OT DIIS     0.10E+00   14.9     0.00000285     -2902.3051589936 -8.78E-04
    10 OT DIIS     0.10E+00   14.9     0.00000284     -2902.3052201646 -6.12E-05
    11 OT DIIS     0.10E+00   15.0     0.00000257     -2902.3060511014 -8.31E-04
    12 OT DIIS     0.10E+00   16.7     0.00000256     -2902.3060615117 -1.04E-05
    13 OT DIIS     0.10E+00   14.3     0.00000245     -2902.3064586507 -3.97E-04
    14 OT DIIS     0.10E+00   14.0     0.00000244     -2902.3065127423 -5.41E-05
    15 OT DIIS     0.10E+00   13.0     0.00000243     -2902.3066106516 -9.79E-05
    16 OT SD       0.10E+00   13.7     0.00000239     -2902.3067189021 -1.08E-04
    17 OT DIIS     0.10E+00   18.3     0.00000239     -2902.3067215922 -2.69E-06
    18 OT SD       0.10E+00   14.4     0.00000221     -2902.3072019264 -4.80E-04
    19 OT DIIS     0.10E+00   14.9     0.00000221     -2902.3072042228 -2.30E-06
    20 OT DIIS     0.10E+00   19.6     0.00000207     -2902.3078547482 -6.51E-04
    21 OT DIIS     0.10E+00   13.8     0.00000206     -2902.3079206490 -6.59E-05
    22 OT DIIS     0.10E+00   16.9     0.00000205     -2902.3079793362 -5.87E-05
    23 OT DIIS     0.10E+00   13.7     0.00000204     -2902.3081067175 -1.27E-04
    24 OT DIIS     0.10E+00   14.6     0.00000203     -2902.3081227165 -1.60E-05
    25 OT DIIS     0.10E+00   16.1     0.00000203     -2902.3081377893 -1.51E-05
    26 OT DIIS     0.10E+00   18.9     0.00000188     -2902.3088083159 -6.71E-04
    27 OT DIIS     0.10E+00   14.1     0.00000188     -2902.3088171376 -8.82E-06
    28 OT DIIS     0.10E+00   13.4     0.00000182     -2902.3090378227 -2.21E-04
    29 OT DIIS     0.10E+00   16.8     0.00000182     -2902.3090467495 -8.93E-06
    30 OT DIIS     0.10E+00   20.3     0.00000181     -2902.3091693446 -1.23E-04
    31 OT DIIS     0.10E+00   14.1     0.00000181     -2902.3092189808 -4.96E-05
    32 OT DIIS     0.10E+00   14.8     0.00000180     -2902.3092763283 -5.73E-05
    33 OT DIIS     0.10E+00   18.5     0.00000180     -2902.3092822929 -5.96E-06
    34 OT DIIS     0.10E+00   14.2     0.00000176     -2902.3093410203 -5.87E-05
    35 OT DIIS     0.10E+00   14.9     0.00000176     -2902.3093459934 -4.97E-06
    36 OT DIIS     0.10E+00   19.4     0.00000174     -2902.3094428312 -9.68E-05
    37 OT DIIS     0.10E+00   14.3     0.00000174     -2902.3094473976 -4.57E-06
    38 OT DIIS     0.10E+00   17.8     0.00000173     -2902.3094884748 -4.11E-05
    39 OT DIIS     0.10E+00   16.5     0.00000173     -2902.3095234865 -3.50E-05
    40 OT DIIS     0.10E+00   14.7     0.00000173     -2902.3095342131 -1.07E-05
    41 OT DIIS     0.10E+00   14.8     0.00000173     -2902.3095395843 -5.37E-06
    42 OT SD       0.10E+00   16.9     0.00000171     -2902.3096631093 -1.24E-04
    43 OT DIIS     0.10E+00   13.9     0.00000171     -2902.3096644873 -1.38E-06
    44 OT DIIS     0.10E+00   13.5     0.00000162     -2902.3104754153 -8.11E-04
    45 OT DIIS     0.10E+00   12.8     0.00000162     -2902.3104857591 -1.03E-05
    46 OT DIIS     0.10E+00   17.4     0.00000161     -2902.3105235742 -3.78E-05
    47 OT SD       0.10E+00   14.1     0.00000160     -2902.3106017862 -7.82E-05
    48 OT DIIS     0.10E+00   15.0     0.00000160     -2902.3106029898 -1.20E-06
    49 OT SD       0.10E+00   17.0     0.00000149     -2902.3115093797 -9.06E-04
    50 OT DIIS     0.10E+00   18.4     0.00000149     -2902.3115104227 -1.04E-06
    51 OT SD       0.10E+00   15.1     0.00000140     -2902.3121056493 -5.95E-04
    52 OT DIIS     0.10E+00   13.6     0.00000140     -2902.3121065667 -9.17E-07
    53 OT SD       0.10E+00   14.7     0.00000133     -2902.3124598376 -3.53E-04
    54 OT DIIS     0.10E+00   17.6     0.00000133     -2902.3124606742 -8.37E-07
    55 OT DIIS     0.10E+00   17.1     0.00000128     -2902.3127364631 -2.76E-04
    56 OT DIIS     0.10E+00   14.7     0.00000127     -2902.3128320416 -9.56E-05
    57 OT DIIS     0.10E+00   15.7     0.00000126     -2902.3128405184 -8.48E-06
    58 OT SD       0.10E+00   13.5     0.00000125     -2902.3131078829 -2.67E-04
    59 OT DIIS     0.10E+00   14.8     0.00000125     -2902.3131086212 -7.38E-07
    60 OT DIIS     0.10E+00   19.2     0.00000121     -2902.3134026109 -2.94E-04
    61 OT DIIS     0.10E+00   14.3     0.00000121     -2902.3134070085 -4.40E-06
    62 OT SD       0.10E+00   14.8     0.00000121     -2902.3134239794 -1.70E-05
    63 OT DIIS     0.10E+00   21.5     0.00000121     -2902.3134246664 -6.87E-07
    64 OT SD       0.10E+00   17.4     0.00000115     -2902.3139314114 -5.07E-04
    65 OT DIIS     0.10E+00   14.6     0.00000115     -2902.3139320317 -6.20E-07
    66 OT DIIS     0.10E+00   15.7     0.00000111     -2902.3141863331 -2.54E-04
    67 OT DIIS     0.10E+00   18.2     0.00000111     -2902.3142095248 -2.32E-05
    68 OT DIIS     0.10E+00   20.7     0.00000111     -2902.3142475484 -3.80E-05
    69 OT DIIS     0.10E+00   17.6     0.00000111     -2902.3142579050 -1.04E-05
    70 OT DIIS     0.10E+00   14.4     0.00000109     -2902.3144964283 -2.39E-04
    71 OT DIIS     0.10E+00   14.3     0.00000109     -2902.3145259293 -2.95E-05
    72 OT DIIS     0.10E+00   19.4     0.00000108     -2902.3145776273 -5.17E-05
    73 OT DIIS     0.10E+00   17.3     0.00000108     -2902.3146141667 -3.65E-05
    74 OT DIIS     0.10E+00   18.5     0.00000108     -2902.3146421862 -2.80E-05
    75 OT DIIS     0.10E+00   16.4     0.00000108     -2902.3146845494 -4.24E-05
    76 OT DIIS     0.10E+00   16.8     0.00000108     -2902.3146908399 -6.29E-06
    77 OT DIIS     0.10E+00   14.7     0.00000108     -2902.3147615562 -7.07E-05
    78 OT DIIS     0.10E+00   15.0     0.00000108     -2902.3147790065 -1.75E-05
    79 OT DIIS     0.10E+00   14.5     0.00000107     -2902.3150435251 -2.65E-04
    80 OT DIIS     0.10E+00   18.9     0.00000106     -2902.3150656189 -2.21E-05
    81 OT SD       0.10E+00   16.6     0.00000106     -2902.3151733370 -1.08E-04
    82 OT DIIS     0.10E+00   15.5     0.00000106     -2902.3151738680 -5.31E-07
    83 OT DIIS     0.10E+00   15.3     0.00000104     -2902.3153864451 -2.13E-04
    84 OT DIIS     0.10E+00   14.5     0.00000104     -2902.3153878568 -1.41E-06
    85 OT DIIS     0.10E+00   18.8     0.00000102     -2902.3154732254 -8.54E-05
    86 OT DIIS     0.10E+00   17.5     0.00000102     -2902.3154816126 -8.39E-06
    87 OT DIIS     0.10E+00   15.8     0.00000102     -2902.3154905157 -8.90E-06
    88 OT DIIS     0.10E+00   15.0     0.00000102     -2902.3156653510 -1.75E-04
    89 OT DIIS     0.10E+00   18.0     0.00000101     -2902.3156726949 -7.34E-06
    90 OT DIIS     0.10E+00   18.2     0.00000100     -2902.3158961674 -2.23E-04
    91 OT DIIS     0.10E+00   20.8     0.00000100     -2902.3159058874 -9.72E-06
    92 OT DIIS     0.10E+00   14.7     0.00000100     -2902.3159835878 -7.77E-05

  *** SCF run converged in    92 steps ***


  Electronic density on regular grids:      -1175.9999999996        0.0000000004
  Core density on regular grids:             1175.9999999995       -0.0000000005
  Total charge density on r-space grids:       -0.0000000001
  Total charge density g-space grids:          -0.0000000001

  Overlap energy of the core charge distribution:               0.00001523920500
  Self energy of the core charge distribution:              -7164.62956309980382
  Core Hamiltonian energy:                                   1986.35723286905204
  Hartree energy:                                            2903.71394663410774
  Exchange-correlation energy:                               -626.31904167300195
  Dispersion energy:                                           -1.43857355737786

  Total energy:                                             -2902.31598358781957

  outer SCF iter =    2 RMS gradient =   0.10E-05 energy =      -2902.3159835878
  outer SCF loop converged in   2 iterations or  242 steps


  Integrated spin density:                                         -0.0000000000
  Integrated absolute spin density:                                 0.0000000061
  Ideal and single determinant S**2 :                    0.000000      -0.000000

 ENERGY| Total FORCE_EVAL ( QS ) energy [hartree]          -2902.315989999118756

 OPT| **************************************************************************
 OPT| Step number                                                              0
 OPT| Optimization method                                                   BFGS
 OPT| Total energy [hartree]                                    -2902.3159899991
 OPT| Used time [s]                                                     4169.556
 OPT| **************************************************************************
 OPT| Estimated peak process memory [MiB]                                  13101

 --------------------------
 OPTIMIZATION STEP:      1
 --------------------------

  Step is scaled; Scaling factor =  0.05986

 Extrapolation method: ASPC

 Spin 1

 Number of electrons:                                                        588
 Number of occupied orbitals:                                                588
 Number of molecular orbitals:                                               588

 Spin 2

 Number of electrons:                                                        588
 Number of occupied orbitals:                                                588
 Number of molecular orbitals:                                               588

 Number of orbital functions:                                               3995
 Number of independent orbital functions:                                   3995


 SCF WAVEFUNCTION OPTIMIZATION

  ----------------------------------- OT ---------------------------------------
  Minimizer      : DIIS                : direct inversion
                                         in the iterative subspace
                                         using   7 DIIS vectors
                                         safer DIIS on
  Preconditioner : FULL_SINGLE_INVERSE : inversion of 
                                         H + eS - 2*(Sc)(c^T*H*c+const)(Sc)^T
  Precond_solver : INVERSE_UPDATE
  stepsize       :    0.10000000                  energy_gap     :    0.10000000
  eps_taylor     :   0.10000E-15                  max_taylor     :             4
  ----------------------------------- OT ---------------------------------------

  Step     Update method      Time    Convergence         Total energy    Change
  ------------------------------------------------------------------------------


     Lanczos converged:  T threshold:   0.100E-02
     Est. extremal eigenvalues:    0.915E+00   0.154E-02
     Est. condition number :    0.594E+03
     Hotelling iter   1 1.00000000   0.994E+00       2.022   122875.234
     Hotelling iter   2 1.00000000   0.975E+00       0.972   262435.390
     Hotelling iter   3 1.00000000   0.904E+00       1.096   232745.999
     Hotelling iter   4 1.00000000   0.681E+00       1.306   195260.046
     Hotelling iter   5 1.00000000   0.266E+00       0.828   307975.203



     Lanczos converged:  T threshold:   0.100E-02
     Est. extremal eigenvalues:    0.915E+00   0.154E-02
     Est. condition number :    0.594E+03
     Hotelling iter   1 1.00000000   0.994E+00       1.588   156481.840
     Hotelling iter   2 1.00000000   0.975E+00       1.523   167427.954
     Hotelling iter   3 1.00000000   0.904E+00       0.939   271515.548
     Hotelling iter   4 1.00000000   0.681E+00       1.175   217105.951
     Hotelling iter   5 1.00000000   0.266E+00       1.196   213324.392

     1 OT DIIS     0.10E+00   29.3     0.00043562     -2904.8985058273 -2.90E+03
     2 OT DIIS     0.10E+00   16.9     0.00028930     -2904.9695319111 -7.10E-02
     3 OT DIIS     0.10E+00   14.2     0.00018368     -2905.0195210055 -5.00E-02
     4 OT DIIS     0.10E+00   14.9     0.00009097     -2905.0488934461 -2.94E-02
     5 OT DIIS     0.10E+00   21.3     0.00005397     -2905.0559977633 -7.10E-03
     6 OT DIIS     0.10E+00   14.7     0.00004169     -2905.0585671889 -2.57E-03
     7 OT DIIS     0.10E+00   13.9     0.00003751     -2905.0600922153 -1.53E-03
     8 OT DIIS     0.10E+00   18.1     0.00003464     -2905.0613878647 -1.30E-03
     9 OT DIIS     0.10E+00   20.0     0.00003299     -2905.0626331203 -1.25E-03
    10 OT DIIS     0.10E+00   15.1     0.00003108     -2905.0642454561 -1.61E-03
    11 OT DIIS     0.10E+00   15.2     0.00002781     -2905.0667005183 -2.46E-03
    12 OT DIIS     0.10E+00   15.6     0.00002426     -2905.0685354285 -1.83E-03
    13 OT DIIS     0.10E+00   14.5     0.00002267     -2905.0706742759 -2.14E-03
    14 OT DIIS     0.10E+00   19.3     0.00001762     -2905.0710712082 -3.97E-04
    15 OT DIIS     0.10E+00   14.4     0.00001761     -2905.0719072987 -8.36E-04
    16 OT DIIS     0.10E+00   20.6     0.00001239     -2905.0722518810 -3.45E-04
    17 OT DIIS     0.10E+00   18.7     0.00001100     -2905.0725084421 -2.57E-04
    18 OT DIIS     0.10E+00   14.4     0.00001039     -2905.0727049139 -1.96E-04
    19 OT DIIS     0.10E+00   15.0     0.00000974     -2905.0728229380 -1.18E-04
    20 OT DIIS     0.10E+00   19.2     0.00000910     -2905.0729739167 -1.51E-04
    21 OT DIIS     0.10E+00   15.5     0.00000894     -2905.0731064323 -1.33E-04
    22 OT DIIS     0.10E+00   15.5     0.00000867     -2905.0732468798 -1.40E-04
    23 OT DIIS     0.10E+00   20.4     0.00000856     -2905.0733570762 -1.10E-04
    24 OT DIIS     0.10E+00   14.4     0.00000847     -2905.0734668129 -1.10E-04
    25 OT DIIS     0.10E+00   15.1     0.00000823     -2905.0737228372 -2.56E-04
    26 OT DIIS     0.10E+00   14.8     0.00000811     -2905.0738357864 -1.13E-04
    27 OT DIIS     0.10E+00   18.3     0.00000783     -2905.0740747439 -2.39E-04
    28 OT DIIS     0.10E+00   20.2     0.00000757     -2905.0742523033 -1.78E-04
    29 OT DIIS     0.10E+00   14.7     0.00000731     -2905.0743996683 -1.47E-04
    30 OT DIIS     0.10E+00   20.6     0.00000677     -2905.0746208798 -2.21E-04
    31 OT DIIS     0.10E+00   17.7     0.00000653     -2905.0748119335 -1.91E-04
    32 OT DIIS     0.10E+00   14.7     0.00000609     -2905.0748388936 -2.70E-05
    33 OT DIIS     0.10E+00   15.5     0.00000569     -2905.0749776602 -1.39E-04
    34 OT DIIS     0.10E+00   15.5     0.00000545     -2905.0751015392 -1.24E-04
    35 OT DIIS     0.10E+00   16.2     0.00000508     -2905.0751297161 -2.82E-05
    36 OT DIIS     0.10E+00   14.7     0.00000476     -2905.0751972760 -6.76E-05
    37 OT DIIS     0.10E+00   18.5     0.00000463     -2905.0752365726 -3.93E-05
    38 OT DIIS     0.10E+00   18.0     0.00000439     -2905.0752900786 -5.35E-05
    39 OT DIIS     0.10E+00   14.4     0.00000413     -2905.0753645070 -7.44E-05
    40 OT DIIS     0.10E+00   15.5     0.00000385     -2905.0754564622 -9.20E-05
    41 OT DIIS     0.10E+00   21.0     0.00000362     -2905.0755180357 -6.16E-05
    42 OT DIIS     0.10E+00   18.3     0.00000339     -2905.0755563141 -3.83E-05
    43 OT SD       0.10E+00   13.4     0.00000371     -2905.0756476566 -9.13E-05
    44 OT DIIS     0.10E+00   19.0     0.00000305     -2905.0756531762 -5.52E-06
    45 OT DIIS     0.10E+00   16.6     0.00000291     -2905.0756752049 -2.20E-05
    46 OT DIIS     0.10E+00   15.2     0.00000256     -2905.0757251585 -5.00E-05
    47 OT DIIS     0.10E+00   14.4     0.00000243     -2905.0757515312 -2.64E-05
    48 OT DIIS     0.10E+00   19.7     0.00000256     -2905.0757726933 -2.12E-05
    49 OT DIIS     0.10E+00   17.9     0.00000204     -2905.0758058349 -3.31E-05
    50 OT DIIS     0.10E+00   17.2     0.00000190     -2905.0758127618 -6.93E-06
    51 OT DIIS     0.10E+00   15.8     0.00000188     -2905.0758187780 -6.02E-06
    52 OT DIIS     0.10E+00   16.3     0.00000209     -2905.0758383055 -1.95E-05
    53 OT DIIS     0.10E+00   18.3     0.00000163     -2905.0758395486 -1.24E-06
    54 OT DIIS     0.10E+00   14.7     0.00000156     -2905.0758486030 -9.05E-06
    55 OT DIIS     0.10E+00   14.9     0.00000151     -2905.0758548895 -6.29E-06
    56 OT DIIS     0.10E+00   14.4     0.00000145     -2905.0758617957 -6.91E-06
    57 OT DIIS     0.10E+00   19.9     0.00000138     -2905.0758709611 -9.17E-06
    58 OT DIIS     0.10E+00   13.9     0.00000134     -2905.0758763707 -5.41E-06
    59 OT DIIS     0.10E+00   17.4     0.00000131     -2905.0758800337 -3.66E-06
    60 OT DIIS     0.10E+00   17.0     0.00000127     -2905.0758877521 -7.72E-06
    61 OT DIIS     0.10E+00   16.6     0.00000124     -2905.0758927503 -5.00E-06
    62 OT DIIS     0.10E+00   15.3     0.00000122     -2905.0759013318 -8.58E-06
    63 OT DIIS     0.10E+00   15.6     0.00000119     -2905.0759074952 -6.16E-06
    64 OT DIIS     0.10E+00   17.1     0.00000117     -2905.0759132096 -5.71E-06
    65 OT DIIS     0.10E+00   13.4     0.00000116     -2905.0759191166 -5.91E-06
    66 OT DIIS     0.10E+00   14.8     0.00000114     -2905.0759261985 -7.08E-06
    67 OT DIIS     0.10E+00   16.7     0.00000113     -2905.0759292314 -3.03E-06
    68 OT DIIS     0.10E+00   17.1     0.00000111     -2905.0759345489 -5.32E-06
    69 OT DIIS     0.10E+00   14.7     0.00000109     -2905.0759405136 -5.96E-06
    70 OT DIIS     0.10E+00   14.9     0.00000107     -2905.0759463502 -5.84E-06
    71 OT DIIS     0.10E+00   14.3     0.00000105     -2905.0759533568 -7.01E-06
    72 OT DIIS     0.10E+00   14.1     0.00000104     -2905.0759583216 -4.96E-06
    73 OT DIIS     0.10E+00   15.5     0.00000102     -2905.0759622217 -3.90E-06
    74 OT DIIS     0.10E+00   15.6     0.00000101     -2905.0759681536 -5.93E-06
    75 OT DIIS     0.10E+00   16.0     0.00000100     -2905.0759729287 -4.78E-06
    76 OT DIIS     0.10E+00   17.5     0.00000099     -2905.0759756032 -2.67E-06

  *** SCF run converged in    76 steps ***


  Electronic density on regular grids:      -1175.9999999997        0.0000000003
  Core density on regular grids:             1175.9999999995       -0.0000000005
  Total charge density on r-space grids:       -0.0000000001
  Total charge density g-space grids:          -0.0000000001

  Overlap energy of the core charge distribution:               0.00001468760346
  Self energy of the core charge distribution:              -7164.62956309980382
  Core Hamiltonian energy:                                   1984.32321311685109
  Hartree energy:                                            2902.63167373528722
  Exchange-correlation energy:                               -625.95839194369637
  Dispersion energy:                                           -1.44292209939262

  Total energy:                                             -2905.07597560315025

  outer SCF iter =    1 RMS gradient =   0.99E-06 energy =      -2905.0759756032
  outer SCF loop converged in   1 iterations or   76 steps


  Integrated spin density:                                         -0.0000000000
  Integrated absolute spin density:                                 0.0000646156
  Ideal and single determinant S**2 :                    0.000000       0.000000

 ENERGY| Total FORCE_EVAL ( QS ) energy [hartree]          -2905.075980508859175

 OPT| **************************************************************************
 OPT| Step number                                                              1
 OPT| Optimization method                                                   BFGS
 OPT| Total energy [hartree]                                    -2905.0759805089
 OPT| Effective energy change [hartree]                            -2.7599905097
 OPT| Predicted energy change [hartree]                            -3.4342097524
 OPT| Scaling factor                                                0.0598624676
 OPT| Step size                                                     0.4724315332
 OPT| Trust radius                                                  0.4724315332
 OPT| Decrease in energy                                                     YES
 OPT| Used time [s]                                                     1323.629
 OPT|
 OPT| Maximum step size                                             0.4724315332
 OPT| Convergence limit for maximum step size                       0.0030000000
 OPT| Maximum step size is converged                                          NO
 OPT|
 OPT| RMS step size                                                 0.0471925734
 OPT| Convergence limit for RMS step size                           0.0015000000
 OPT| RMS step size is converged                                              NO
 OPT|
 OPT| Maximum gradient                                              0.9309564355
 OPT| Convergence limit for maximum gradient                        0.0004500000
 OPT| Maximum gradient is converged                                           NO
 OPT|
 OPT| RMS gradient                                                  0.0779667896
 OPT| Convergence limit for RMS gradient                            0.0003000000
 OPT| RMS gradient is converged                                               NO
 OPT| **************************************************************************
 OPT| Estimated peak process memory after this step [MiB]                  13467

 --------------------------
 OPTIMIZATION STEP:      2
 --------------------------

  Step is scaled; Scaling factor =  0.03901

 Extrapolation method: ASPC

 Spin 1

 Number of electrons:                                                        588
 Number of occupied orbitals:                                                588
 Number of molecular orbitals:                                               588

 Spin 2

 Number of electrons:                                                        588
 Number of occupied orbitals:                                                588
 Number of molecular orbitals:                                               588

 Number of orbital functions:                                               3995
 Number of independent orbital functions:                                   3995


 SCF WAVEFUNCTION OPTIMIZATION

  ----------------------------------- OT ---------------------------------------
  Minimizer      : DIIS                : direct inversion
                                         in the iterative subspace
                                         using   7 DIIS vectors
                                         safer DIIS on
  Preconditioner : FULL_SINGLE_INVERSE : inversion of 
                                         H + eS - 2*(Sc)(c^T*H*c+const)(Sc)^T
  Precond_solver : INVERSE_UPDATE
  stepsize       :    0.10000000                  energy_gap     :    0.10000000
  eps_taylor     :   0.10000E-15                  max_taylor     :             4
  ----------------------------------- OT ---------------------------------------

  Step     Update method      Time    Convergence         Total energy    Change
  ------------------------------------------------------------------------------


     Lanczos converged:  T threshold:   0.100E-02
     Est. extremal eigenvalues:    0.737E+01   0.104E+00
     Est. condition number :    0.707E+02
     Hotelling iter   1 1.00000000   0.948E+00       2.309   110458.184
     Hotelling iter   2 1.00000000   0.811E+00       0.976   261377.411
     Hotelling iter   3 1.00000000   0.465E+00       1.270   200894.296
     Hotelling iter   4 1.00000000   0.920E-01       1.158   220151.801



     Lanczos converged:  T threshold:   0.100E-02
     Est. extremal eigenvalues:    0.737E+01   0.104E+00
     Est. condition number :    0.707E+02
     Hotelling iter   1 1.00000000   0.948E+00       2.333   109341.533
     Hotelling iter   2 1.00000000   0.811E+00       1.009   252696.547
     Hotelling iter   3 1.00000000   0.465E+00       1.403   181748.179
     Hotelling iter   4 1.00000000   0.920E-01       0.875   291638.575

     1 OT DIIS     0.10E+00   27.5     0.00059286     -2906.6408249951 -2.91E+03
     2 OT DIIS     0.10E+00   13.6     0.00029772     -2906.7517383708 -1.11E-01
     3 OT DIIS     0.10E+00   15.1     0.00020776     -2906.7900017122 -3.83E-02
     4 OT DIIS     0.10E+00   14.3     0.00016676     -2906.8098633841 -1.99E-02
     5 OT DIIS     0.10E+00   19.5     0.00008132     -2906.8214768970 -1.16E-02
     6 OT DIIS     0.10E+00   13.7     0.00004539     -2906.8259102015 -4.43E-03
     7 OT DIIS     0.10E+00   16.5     0.00003148     -2906.8273446793 -1.43E-03
     8 OT DIIS     0.10E+00   13.5     0.00002963     -2906.8278732297 -5.29E-04
     9 OT DIIS     0.10E+00   14.9     0.00002493     -2906.8281261935 -2.53E-04
    10 OT DIIS     0.10E+00   13.9     0.00001908     -2906.8283436457 -2.17E-04
    11 OT DIIS     0.10E+00   20.4     0.00001530     -2906.8285560870 -2.12E-04
    12 OT DIIS     0.10E+00   13.9     0.00001426     -2906.8287129831 -1.57E-04
    13 OT DIIS     0.10E+00   14.0     0.00001197     -2906.8288399840 -1.27E-04
    14 OT DIIS     0.10E+00   14.8     0.00001123     -2906.8289645744 -1.25E-04
    15 OT DIIS     0.10E+00   13.1     0.00001023     -2906.8290601472 -9.56E-05
    16 OT DIIS     0.10E+00   14.8     0.00000916     -2906.8291694961 -1.09E-04
    17 OT DIIS     0.10E+00   13.9     0.00000900     -2906.8292492997 -7.98E-05
    18 OT DIIS     0.10E+00   16.4     0.00000863     -2906.8293099470 -6.06E-05
    19 OT DIIS     0.10E+00   14.0     0.00000744     -2906.8293655155 -5.56E-05
    20 OT DIIS     0.10E+00   15.1     0.00000722     -2906.8294277597 -6.22E-05
    21 OT DIIS     0.10E+00   13.8     0.00000656     -2906.8294768045 -4.90E-05
    22 OT DIIS     0.10E+00   13.2     0.00000617     -2906.8295345598 -5.78E-05
    23 OT DIIS     0.10E+00   14.7     0.00000594     -2906.8295772786 -4.27E-05
    24 OT DIIS     0.10E+00   13.8     0.00000547     -2906.8296199677 -4.27E-05
    25 OT DIIS     0.10E+00   19.1     0.00000529     -2906.8296629059 -4.29E-05
    26 OT DIIS     0.10E+00   14.1     0.00000541     -2906.8296950657 -3.22E-05
    27 OT DIIS     0.10E+00   14.8     0.00000481     -2906.8297268761 -3.18E-05
    28 OT DIIS     0.10E+00   13.8     0.00000469     -2906.8297579733 -3.11E-05
    29 OT DIIS     0.10E+00   13.7     0.00000423     -2906.8297808895 -2.29E-05
    30 OT DIIS     0.10E+00   14.9     0.00000401     -2906.8298019770 -2.11E-05
    31 OT DIIS     0.10E+00   15.2     0.00000382     -2906.8298177131 -1.57E-05
    32 OT DIIS     0.10E+00   15.8     0.00000362     -2906.8298327454 -1.50E-05
    33 OT DIIS     0.10E+00   18.6     0.00000350     -2906.8298493764 -1.66E-05
    34 OT DIIS     0.10E+00   14.6     0.00000355     -2906.8298610830 -1.17E-05
    35 OT DIIS     0.10E+00   15.5     0.00000324     -2906.8298715230 -1.04E-05
    36 OT DIIS     0.10E+00   14.8     0.00000313     -2906.8298812704 -9.75E-06
    37 OT DIIS     0.10E+00   21.1     0.00000297     -2906.8298889036 -7.63E-06
    38 OT DIIS     0.10E+00   14.5     0.00000287     -2906.8298973679 -8.46E-06
    39 OT DIIS     0.10E+00   15.3     0.00000284     -2906.8299051807 -7.81E-06
    40 OT DIIS     0.10E+00   15.4     0.00000269     -2906.8299129707 -7.79E-06
    41 OT DIIS     0.10E+00   20.4     0.00000263     -2906.8299215963 -8.63E-06
    42 OT DIIS     0.10E+00   18.6     0.00000261     -2906.8299280402 -6.44E-06
    43 OT DIIS     0.10E+00   16.7     0.00000252     -2906.8299340586 -6.02E-06
    44 OT DIIS     0.10E+00   13.8     0.00000245     -2906.8299410159 -6.96E-06
    45 OT DIIS     0.10E+00   14.5     0.00000242     -2906.8299474011 -6.39E-06
    46 OT DIIS     0.10E+00   19.6     0.00000232     -2906.8299547801 -7.38E-06
    47 OT DIIS     0.10E+00   16.8     0.00000230     -2906.8299612022 -6.42E-06
    48 OT DIIS     0.10E+00   15.0     0.00000217     -2906.8299667266 -5.52E-06
    49 OT DIIS     0.10E+00   15.1     0.00000212     -2906.8299726792 -5.95E-06
    50 OT DIIS     0.10E+00   14.5     0.00000211     -2906.8299775200 -4.84E-06
    51 OT DIIS     0.10E+00   18.7     0.00000209     -2906.8299827409 -5.22E-06
    52 OT DIIS     0.10E+00   15.0     0.00000203     -2906.8299888939 -6.15E-06
    53 OT DIIS     0.10E+00   14.8     0.00000201     -2906.8299943712 -5.48E-06
    54 OT DIIS     0.10E+00   15.5     0.00000190     -2906.8299995354 -5.16E-06
    55 OT DIIS     0.10E+00   15.0     0.00000187     -2906.8300037236 -4.19E-06
    56 OT DIIS     0.10E+00   16.4     0.00000180     -2906.8300070276 -3.30E-06
    57 OT DIIS     0.10E+00   23.7     0.00000177     -2906.8300115066 -4.48E-06
    58 OT DIIS     0.10E+00   14.1     0.00000179     -2906.8300158669 -4.36E-06
    59 OT DIIS     0.10E+00   14.4     0.00000176     -2906.8300203701 -4.50E-06
    60 OT DIIS     0.10E+00   18.4     0.00000170     -2906.8300247388 -4.37E-06
    61 OT DIIS     0.10E+00   17.3     0.00000166     -2906.8300281591 -3.42E-06
    62 OT DIIS     0.10E+00   14.7     0.00000160     -2906.8300309518 -2.79E-06
    63 OT DIIS     0.10E+00   15.4     0.00000158     -2906.8300337352 -2.78E-06
    64 OT DIIS     0.10E+00   15.6     0.00000157     -2906.8300365803 -2.85E-06
    65 OT DIIS     0.10E+00   17.9     0.00000155     -2906.8300408524 -4.27E-06
    66 OT DIIS     0.10E+00   18.6     0.00000155     -2906.8300442755 -3.42E-06
    67 OT DIIS     0.10E+00   14.4     0.00000150     -2906.8300470172 -2.74E-06
    68 OT DIIS     0.10E+00   15.0     0.00000147     -2906.8300491813 -2.16E-06
    69 OT DIIS     0.10E+00   14.5     0.00000146     -2906.8300509546 -1.77E-06
    70 OT DIIS     0.10E+00   22.0     0.00000145     -2906.8300528942 -1.94E-06
    71 OT DIIS     0.10E+00   15.4     0.00000145     -2906.8300552896 -2.40E-06
    72 OT DIIS     0.10E+00   20.9     0.00000144     -2906.8300571517 -1.86E-06
    73 OT DIIS     0.10E+00   19.3     0.00000143     -2906.8300588595 -1.71E-06
    74 OT DIIS     0.10E+00   14.7     0.00000142     -2906.8300595556 -6.96E-07
    75 OT SD       0.10E+00   15.5     0.00000142     -2906.8300596735 -1.18E-07
    76 OT SD       0.10E+00   15.5     0.00000143     -2906.8300606246 -9.51E-07
    77 OT SD       0.10E+00   14.6     0.00000144     -2906.8300615794 -9.55E-07
    78 OT SD       0.10E+00   21.9     0.00000153     -2906.8300625303 -9.51E-07
    79 OT SD       0.10E+00   14.9     0.00000207     -2906.8300633912 -8.61E-07
    80 OT SD       0.10E+00   15.1     0.00000453     -2906.8300634102 -1.90E-08
    81 OT DIIS     0.10E+00   17.9     0.00001258     -2906.8300561600  7.25E-06
    82 OT DIIS     0.10E+00   19.5     0.00000115     -2906.8300634292 -7.27E-06
    83 OT DIIS     0.10E+00   14.5     0.00000103     -2906.8300653684 -1.94E-06
    84 OT DIIS     0.10E+00   15.7     0.00000105     -2906.8300664186 -1.05E-06
    85 OT DIIS     0.10E+00   14.4     0.00000099     -2906.8300673499 -9.31E-07

  *** SCF run converged in    85 steps ***


  Electronic density on regular grids:      -1176.0000000011       -0.0000000011
  Core density on regular grids:             1175.9999999995       -0.0000000005
  Total charge density on r-space grids:       -0.0000000016
  Total charge density g-space grids:          -0.0000000016

  Overlap energy of the core charge distribution:               0.00001391932153
  Self energy of the core charge distribution:              -7164.62956309980382
  Core Hamiltonian energy:                                   1982.01721844193344
  Hartree energy:                                            2902.68421086176750
  Exchange-correlation energy:                               -625.45601383624012
  Dispersion energy:                                           -1.44593363688000

  Total energy:                                             -2906.83006734990158

  outer SCF iter =    1 RMS gradient =   0.99E-06 energy =      -2906.8300673499
  outer SCF loop converged in   1 iterations or   85 steps


  Integrated spin density:                                         -0.0000000000
  Integrated absolute spin density:                                 0.0048968081
  Ideal and single determinant S**2 :                    0.000000       0.000008

 ENERGY| Total FORCE_EVAL ( QS ) energy [hartree]          -2906.830069770486716

 OPT| **************************************************************************
 OPT| Step number                                                              2
 OPT| Optimization method                                                   BFGS
 OPT| Total energy [hartree]                                    -2906.8300697705
 OPT| Effective energy change [hartree]                            -1.7540892616
 OPT| Predicted energy change [hartree]                            -2.5887468515
 OPT| Scaling factor                                                0.0390138242
 OPT| Step size                                                     0.4724315332
 OPT| Trust radius                                                  0.4724315332
 OPT| Decrease in energy                                                     YES
 OPT| Used time [s]                                                     1429.614
 OPT|
 OPT| Maximum step size                                             0.4724315332
 OPT| Convergence limit for maximum step size                       0.0030000000
 OPT| Maximum step size is converged                                          NO
 OPT|
 OPT| RMS step size                                                 0.0483893337
 OPT| Convergence limit for RMS step size                           0.0015000000
 OPT| RMS step size is converged                                              NO
 OPT|
 OPT| Maximum gradient                                              1.0543437984
 OPT| Convergence limit for maximum gradient                        0.0004500000
 OPT| Maximum gradient is converged                                           NO
 OPT|
 OPT| RMS gradient                                                  0.0959130232
 OPT| Convergence limit for RMS gradient                            0.0003000000
 OPT| RMS gradient is converged                                               NO
 OPT| **************************************************************************
 OPT| Estimated peak process memory after this step [MiB]                  13510

 --------------------------
 OPTIMIZATION STEP:      3
 --------------------------

  Step is scaled; Scaling factor =  0.03093

 Extrapolation method: ASPC

 Spin 1

 Number of electrons:                                                        588
 Number of occupied orbitals:                                                588
 Number of molecular orbitals:                                               588

 Spin 2

 Number of electrons:                                                        588
 Number of occupied orbitals:                                                588
 Number of molecular orbitals:                                               588

 Number of orbital functions:                                               3995
 Number of independent orbital functions:                                   3995


 SCF WAVEFUNCTION OPTIMIZATION

  ----------------------------------- OT ---------------------------------------
  Minimizer      : DIIS                : direct inversion
                                         in the iterative subspace
                                         using   7 DIIS vectors
                                         safer DIIS on
  Preconditioner : FULL_SINGLE_INVERSE : inversion of 
                                         H + eS - 2*(Sc)(c^T*H*c+const)(Sc)^T
  Precond_solver : INVERSE_UPDATE
  stepsize       :    0.10000000                  energy_gap     :    0.10000000
  eps_taylor     :   0.10000E-15                  max_taylor     :             4
  ----------------------------------- OT ---------------------------------------

  Step     Update method      Time    Convergence         Total energy    Change
  ------------------------------------------------------------------------------


     Lanczos converged:  T threshold:   0.100E-02
     Est. extremal eigenvalues:    0.506E+01   0.154E+00
     Est. condition number :    0.328E+02
     Hotelling iter   1 1.00000000   0.891E+00       2.277   104924.967
     Hotelling iter   2 1.00000000   0.645E+00       1.046   243282.615
     Hotelling iter   3 1.00000000   0.226E+00       1.404   181561.498



     Lanczos converged:  T threshold:   0.100E-02
     Est. extremal eigenvalues:    0.505E+01   0.155E+00
     Est. condition number :    0.327E+02
     Hotelling iter   1 1.00000000   0.890E+00       2.171   110050.701
     Hotelling iter   2 1.00000000   0.644E+00       0.900   282929.454
     Hotelling iter   3 1.00000000   0.225E+00       1.606   158726.883

     1 OT DIIS     0.10E+00   20.9     0.00059422     -2907.4460024232 -2.91E+03
     2 OT DIIS     0.10E+00   20.0     0.00033978     -2907.5655083769 -1.20E-01
     3 OT DIIS     0.10E+00   16.6     0.00023003     -2907.6208134475 -5.53E-02
     4 OT DIIS     0.10E+00   15.2     0.00012327     -2907.6614295143 -4.06E-02
     5 OT DIIS     0.10E+00   17.2     0.00006551     -2907.6750786849 -1.36E-02
     6 OT DIIS     0.10E+00   17.2     0.00004478     -2907.6783913408 -3.31E-03
     7 OT DIIS     0.10E+00   14.8     0.00003157     -2907.6796474461 -1.26E-03
     8 OT DIIS     0.10E+00   15.5     0.00002603     -2907.6801828606 -5.35E-04
     9 OT DIIS     0.10E+00   14.9     0.00001920     -2907.6805880552 -4.05E-04
    10 OT DIIS     0.10E+00   16.2     0.00001692     -2907.6809808184 -3.93E-04
    11 OT DIIS     0.10E+00   19.2     0.00001379     -2907.6811877382 -2.07E-04
    12 OT DIIS     0.10E+00   14.0     0.00001090     -2907.6814585860 -2.71E-04
    13 OT DIIS     0.10E+00   15.6     0.00000988     -2907.6816119804 -1.53E-04
    14 OT DIIS     0.10E+00   14.6     0.00000761     -2907.6817463575 -1.34E-04
    15 OT DIIS     0.10E+00   18.6     0.00000615     -2907.6818267297 -8.04E-05
    16 OT DIIS     0.10E+00   18.0     0.00000525     -2907.6818766192 -4.99E-05
    17 OT DIIS     0.10E+00   15.9     0.00000453     -2907.6819016424 -2.50E-05
    18 OT DIIS     0.10E+00   14.7     0.00000383     -2907.6819250060 -2.34E-05
    19 OT DIIS     0.10E+00   20.3     0.00000346     -2907.6819376956 -1.27E-05
    20 OT DIIS     0.10E+00   17.3     0.00000314     -2907.6819500256 -1.23E-05
    21 OT DIIS     0.10E+00   14.7     0.00000291     -2907.6819597653 -9.74E-06
    22 OT DIIS     0.10E+00   21.1     0.00000272     -2907.6819687132 -8.95E-06
    23 OT DIIS     0.10E+00   20.0     0.00000261     -2907.6819755286 -6.82E-06
    24 OT DIIS     0.10E+00   16.1     0.00000251     -2907.6819827081 -7.18E-06
    25 OT DIIS     0.10E+00   15.1     0.00000245     -2907.6819887937 -6.09E-06
    26 OT DIIS     0.10E+00   19.2     0.00000240     -2907.6819945315 -5.74E-06
    27 OT DIIS     0.10E+00   19.3     0.00000237     -2907.6819987267 -4.20E-06
    28 OT DIIS     0.10E+00   14.5     0.00000236     -2907.6820027165 -3.99E-06
    29 OT DIIS     0.10E+00   14.8     0.00000236     -2907.6820050246 -2.31E-06
    30 OT SD       0.10E+00   15.7     0.00000236     -2907.6820057388 -7.14E-07
    31 OT SD       0.10E+00   16.3     0.00000237     -2907.6820083650 -2.63E-06
    32 OT SD       0.10E+00   20.3     0.00000239     -2907.6820110126 -2.65E-06
    33 OT SD       0.10E+00   13.9     0.00000241     -2907.6820136916 -2.68E-06
    34 OT SD       0.10E+00   16.8     0.00000244     -2907.6820164103 -2.72E-06
    35 OT SD       0.10E+00   16.0     0.00000248     -2907.6820191744 -2.76E-06
    36 OT SD       0.10E+00   17.2     0.00000258     -2907.6820219811 -2.81E-06
    37 OT SD       0.10E+00   14.6     0.00000279     -2907.6820248029 -2.82E-06
    38 OT SD       0.10E+00   15.5     0.00000331     -2907.6820275361 -2.73E-06
    39 OT SD       0.10E+00   15.5     0.00000449     -2907.6820298439 -2.31E-06
    40 OT SD       0.10E+00   15.4     0.00000692     -2907.6820306737 -8.30E-07
    41 OT SD       0.10E+00   19.3     0.00001151     -2907.6820267750  3.90E-06
    42 OT DIIS     0.10E+00   19.9     0.00001978     -2907.6820081409  1.86E-05
    43 OT DIIS     0.10E+00   15.0     0.00000179     -2907.6820031894  4.95E-06
    44 OT DIIS     0.10E+00   15.0     0.00000163     -2907.6820035396 -3.50E-07
    45 OT DIIS     0.10E+00   14.4     0.00000153     -2907.6820043701 -8.30E-07
    46 OT DIIS     0.10E+00   21.1     0.00000136     -2907.6820089508 -4.58E-06
    47 OT DIIS     0.10E+00   18.3     0.00000128     -2907.6820098378 -8.87E-07
    48 OT DIIS     0.10E+00   14.1     0.00000117     -2907.6820144378 -4.60E-06
    49 OT DIIS     0.10E+00   19.5     0.00000109     -2907.6820181771 -3.74E-06
    50 OT DIIS     0.10E+00   16.6     0.00000103     -2907.6820212703 -3.09E-06
    51 OT DIIS     0.10E+00   14.5     0.00000099     -2907.6820234215 -2.15E-06

  *** SCF run converged in    51 steps ***


  Electronic density on regular grids:      -1176.0000000025       -0.0000000025
  Core density on regular grids:             1175.9999999995       -0.0000000005
  Total charge density on r-space grids:       -0.0000000030
  Total charge density g-space grids:          -0.0000000030

  Overlap energy of the core charge distribution:               0.00001313400141
  Self energy of the core charge distribution:              -7164.62956309980382
  Core Hamiltonian energy:                                   1980.51371410071397
  Hartree energy:                                            2902.97101825172786
  Exchange-correlation energy:                               -625.08839314066870
  Dispersion energy:                                           -1.44881266748775

  Total energy:                                             -2907.68202342151699

  outer SCF iter =    1 RMS gradient =   0.99E-06 energy =      -2907.6820234215
  outer SCF loop converged in   1 iterations or   51 steps


  Integrated spin density:                                          0.0000000000
  Integrated absolute spin density:                                 0.0301401252
  Ideal and single determinant S**2 :                    0.000000       0.000277

 ENERGY| Total FORCE_EVAL ( QS ) energy [hartree]          -2907.682025207021525

 OPT| **************************************************************************
 OPT| Step number                                                              3
 OPT| Optimization method                                                   BFGS
 OPT| Total energy [hartree]                                    -2907.6820252070
 OPT| Effective energy change [hartree]                            -0.8519554365
 OPT| Predicted energy change [hartree]                            -2.0260032284
 OPT| Scaling factor                                                0.0309281003
 OPT| Step size                                                     0.4724315332
 OPT| Trust radius                                                  0.4724315332
 OPT| Decrease in energy                                                     YES
 OPT| Used time [s]                                                      915.957
 OPT|
 OPT| Maximum step size                                             0.4724315332
 OPT| Convergence limit for maximum step size                       0.0030000000
 OPT| Maximum step size is converged                                          NO
 OPT|
 OPT| RMS step size                                                 0.0453537392
 OPT| Convergence limit for RMS step size                           0.0015000000
 OPT| RMS step size is converged                                              NO
 OPT|
 OPT| Maximum gradient                                              1.2370009064
 OPT| Convergence limit for maximum gradient                        0.0004500000
 OPT| Maximum gradient is converged                                           NO
 OPT|
 OPT| RMS gradient                                                  0.1120925698
 OPT| Convergence limit for RMS gradient                            0.0003000000
 OPT| RMS gradient is converged                                               NO
 OPT| **************************************************************************
 OPT| Estimated peak process memory after this step [MiB]                  13742

 --------------------------
 OPTIMIZATION STEP:      4
 --------------------------

  Step is scaled; Scaling factor =  0.09476

 Extrapolation method: ASPC

 Spin 1

 Number of electrons:                                                        588
 Number of occupied orbitals:                                                588
 Number of molecular orbitals:                                               588

 Spin 2

 Number of electrons:                                                        588
 Number of occupied orbitals:                                                588
 Number of molecular orbitals:                                               588

 Number of orbital functions:                                               3995
 Number of independent orbital functions:                                   3995


 SCF WAVEFUNCTION OPTIMIZATION

  ----------------------------------- OT ---------------------------------------
  Minimizer      : DIIS                : direct inversion
                                         in the iterative subspace
                                         using   7 DIIS vectors
                                         safer DIIS on
  Preconditioner : FULL_SINGLE_INVERSE : inversion of 
                                         H + eS - 2*(Sc)(c^T*H*c+const)(Sc)^T
  Precond_solver : INVERSE_UPDATE
  stepsize       :    0.10000000                  energy_gap     :    0.10000000
  eps_taylor     :   0.10000E-15                  max_taylor     :             4
  ----------------------------------- OT ---------------------------------------

  Step     Update method      Time    Convergence         Total energy    Change
  ------------------------------------------------------------------------------


     Lanczos converged:  T threshold:   0.100E-02
     Est. extremal eigenvalues:    0.679E+01   0.154E+00
     Est. condition number :    0.441E+02
     Hotelling iter   1 1.00000000   0.917E+00       2.579    84751.233
     Hotelling iter   2 1.00000000   0.718E+00       1.086   232352.482
     Hotelling iter   3 1.00000000   0.314E+00       1.219   208675.991



     Lanczos converged:  T threshold:   0.100E-02
     Est. extremal eigenvalues:    0.676E+01   0.155E+00
     Est. condition number :    0.436E+02
     Hotelling iter   1 1.00000000   0.917E+00       1.976   110571.564
     Hotelling iter   2 1.00000000   0.716E+00       1.064   237151.610
     Hotelling iter   3 1.00000000   0.310E+00       1.092   233049.916

     1 OT DIIS     0.10E+00   20.3     0.00087728     -2907.2217522014 -2.91E+03
     2 OT DIIS     0.10E+00   14.6     0.00052401     -2907.4926400250 -2.71E-01
     3 OT DIIS     0.10E+00   15.7     0.00033728     -2907.6316458583 -1.39E-01
     4 OT DIIS     0.10E+00   19.4     0.00021849     -2907.7046514313 -7.30E-02
     5 OT DIIS     0.10E+00   17.4     0.00014486     -2907.7292678172 -2.46E-02
     6 OT DIIS     0.10E+00   14.8     0.00007506     -2907.7417879719 -1.25E-02
     7 OT DIIS     0.10E+00   20.8     0.00006964     -2907.7458913279 -4.10E-03
     8 OT DIIS     0.10E+00   20.0     0.00004022     -2907.7472473698 -1.36E-03
     9 OT DIIS     0.10E+00   17.7     0.00002970     -2907.7480261035 -7.79E-04
    10 OT DIIS     0.10E+00   14.3     0.00002414     -2907.7484409133 -4.15E-04
    11 OT DIIS     0.10E+00   15.0     0.00002117     -2907.7487956811 -3.55E-04
    12 OT DIIS     0.10E+00   18.4     0.00001598     -2907.7491326744 -3.37E-04
    13 OT DIIS     0.10E+00   18.4     0.00001449     -2907.7493588866 -2.26E-04
    14 OT DIIS     0.10E+00   15.7     0.00001241     -2907.7495081956 -1.49E-04
    15 OT DIIS     0.10E+00   15.4     0.00001034     -2907.7496770047 -1.69E-04
    16 OT DIIS     0.10E+00   14.7     0.00000901     -2907.7497863519 -1.09E-04
    17 OT DIIS     0.10E+00   18.5     0.00000772     -2907.7498694669 -8.31E-05
    18 OT DIIS     0.10E+00   16.5     0.00000699     -2907.7499200014 -5.05E-05
    19 OT DIIS     0.10E+00   17.4     0.00000588     -2907.7499640768 -4.41E-05
    20 OT DIIS     0.10E+00   14.6     0.00000537     -2907.7499992686 -3.52E-05
    21 OT DIIS     0.10E+00   17.9     0.00000508     -2907.7500239972 -2.47E-05
    22 OT DIIS     0.10E+00   16.7     0.00000481     -2907.7500487199 -2.47E-05
    23 OT DIIS     0.10E+00   15.5     0.00000468     -2907.7500670392 -1.83E-05
    24 OT DIIS     0.10E+00   14.8     0.00000459     -2907.7500824894 -1.55E-05
    25 OT DIIS     0.10E+00   19.2     0.00000458     -2907.7500949254 -1.24E-05
    26 OT DIIS     0.10E+00   20.7     0.00000457     -2907.7501023600 -7.43E-06
    27 OT SD       0.10E+00   14.8     0.00000458     -2907.7501038357 -1.48E-06
    28 OT SD       0.10E+00   20.3     0.00000460     -2907.7501136884 -9.85E-06
    29 OT SD       0.10E+00   14.6     0.00000465     -2907.7501236556 -9.97E-06
    30 OT SD       0.10E+00   16.3     0.00000473     -2907.7501337698 -1.01E-05
    31 OT SD       0.10E+00   17.0     0.00000494     -2907.7501440059 -1.02E-05
    32 OT SD       0.10E+00   17.2     0.00000559     -2907.7501541189 -1.01E-05
    33 OT SD       0.10E+00   15.0     0.00000768     -2907.7501629286 -8.81E-06
    34 OT SD       0.10E+00   15.1     0.00001329     -2907.7501652048 -2.28E-06
    35 OT SD       0.10E+00   14.5     0.00002620     -2907.7501380451  2.72E-05
    36 OT DIIS     0.10E+00   18.1     0.00005396     -2907.7499810183  1.57E-04
    37 OT DIIS     0.10E+00   14.8     0.00000353     -2907.7499889031 -7.88E-06
    38 OT DIIS     0.10E+00   15.3     0.00000350     -2907.7499943958 -5.49E-06
    39 OT DIIS     0.10E+00   14.4     0.00000315     -2907.7499961264 -1.73E-06
    40 OT DIIS     0.10E+00   19.9     0.00000295     -2907.7500019453 -5.82E-06
    41 OT DIIS     0.10E+00   18.5     0.00000257     -2907.7500135754 -1.16E-05
    42 OT DIIS     0.10E+00   14.5     0.00000242     -2907.7500278020 -1.42E-05
    43 OT DIIS     0.10E+00   17.5     0.00000222     -2907.7500320543 -4.25E-06
    44 OT DIIS     0.10E+00   18.9     0.00000212     -2907.7500385595 -6.51E-06
    45 OT DIIS     0.10E+00   18.6     0.00000208     -2907.7500442167 -5.66E-06
    46 OT DIIS     0.10E+00   14.5     0.00000205     -2907.7500493735 -5.16E-06
    47 OT DIIS     0.10E+00   15.6     0.00000202     -2907.7500535745 -4.20E-06
    48 OT DIIS     0.10E+00   14.8     0.00000202     -2907.7500568985 -3.32E-06
    49 OT DIIS     0.10E+00   20.8     0.00000202     -2907.7500594378 -2.54E-06
    50 OT DIIS     0.10E+00   14.2     0.00000202     -2907.7500604058 -9.68E-07
    51 OT DIIS     0.10E+00   14.6     0.00000202     -2907.7500608019 -3.96E-07
    52 OT SD       0.10E+00   19.7     0.00000202     -2907.7500608562 -5.43E-08
    53 OT SD       0.10E+00   16.4     0.00000202     -2907.7500627666 -1.91E-06
    54 OT SD       0.10E+00   15.3     0.00000204     -2907.7500646829 -1.92E-06
    55 OT SD       0.10E+00   15.6     0.00000210     -2907.7500665979 -1.92E-06
    56 OT SD       0.10E+00   16.3     0.00000235     -2907.7500684666 -1.87E-06
    57 OT SD       0.10E+00   14.1     0.00000323     -2907.7500700664 -1.60E-06
    58 OT SD       0.10E+00   15.2     0.00000579     -2907.7500703406 -2.74E-07
    59 OT SD       0.10E+00   14.4     0.00001193     -2907.7500642986  6.04E-06
    60 OT DIIS     0.10E+00   18.8     0.00002560     -2907.7500283597  3.59E-05
    61 OT DIIS     0.10E+00   17.9     0.00000189     -2907.7500375372 -9.18E-06
    62 OT SD       0.10E+00   14.7     0.00000185     -2907.7500384545 -9.17E-07
    63 OT SD       0.10E+00   15.0     0.00000191     -2907.7500399247 -1.47E-06
    64 OT SD       0.10E+00   19.6     0.00000227     -2907.7500412415 -1.32E-06
    65 OT SD       0.10E+00   19.1     0.00000336     -2907.7500421749 -9.33E-07
    66 OT DIIS     0.10E+00   14.5     0.00000605     -2907.7500416189  5.56E-07
    67 OT DIIS     0.10E+00   15.3     0.00000170     -2907.7500500927 -8.47E-06
    68 OT DIIS     0.10E+00   16.8     0.00000169     -2907.7500544653 -4.37E-06
    69 OT DIIS     0.10E+00   16.8     0.00000169     -2907.7500563697 -1.90E-06
    70 OT SD       0.10E+00   18.0     0.00000169     -2907.7500583613 -1.99E-06
    71 OT SD       0.10E+00   18.0     0.00000169     -2907.7500597022 -1.34E-06
    72 OT SD       0.10E+00   13.9     0.00000170     -2907.7500610484 -1.35E-06
    73 OT SD       0.10E+00   15.5     0.00000170     -2907.7500624017 -1.35E-06
    74 OT SD       0.10E+00   14.4     0.00000171     -2907.7500637633 -1.36E-06
    75 OT SD       0.10E+00   18.1     0.00000174     -2907.7500651322 -1.37E-06
    76 OT SD       0.10E+00   17.2     0.00000181     -2907.7500664994 -1.37E-06
    77 OT SD       0.10E+00   14.8     0.00000209     -2907.7500678184 -1.32E-06
[...]
    29 OT DIIS     0.10E+00   14.2     0.00003286     -2911.4215616378  5.94E-05
    30 OT DIIS     0.10E+00   16.9     0.00000261     -2911.4215962936 -3.47E-05
    31 OT DIIS     0.10E+00   19.0     0.00000257     -2911.4215975049 -1.21E-06
    32 OT DIIS     0.10E+00   14.0     0.00000253     -2911.4216067127 -9.21E-06
    33 OT DIIS     0.10E+00   15.3     0.00000253     -2911.4216094685 -2.76E-06
    34 OT DIIS     0.10E+00   13.5     0.00000252     -2911.4216120708 -2.60E-06
    35 OT DIIS     0.10E+00   17.1     0.00000251     -2911.4216213665 -9.30E-06
    36 OT SD       0.10E+00   14.2     0.00000251     -2911.4216257578 -4.39E-06
    37 OT SD       0.10E+00   18.0     0.00000251     -2911.4216287186 -2.96E-06
    38 OT SD       0.10E+00   14.2     0.00000252     -2911.4216316885 -2.97E-06
    39 OT SD       0.10E+00   20.8     0.00000253     -2911.4216346697 -2.98E-06
    40 OT SD       0.10E+00   14.3     0.00000255     -2911.4216376621 -2.99E-06
    41 OT SD       0.10E+00   18.9     0.00000260     -2911.4216406578 -3.00E-06
    42 OT SD       0.10E+00   17.3     0.00000278     -2911.4216436177 -2.96E-06
    43 OT SD       0.10E+00   18.9     0.00000342     -2911.4216463710 -2.75E-06
    44 OT SD       0.10E+00   14.0     0.00000530     -2911.4216481919 -1.82E-06
    45 OT SD       0.10E+00   14.6     0.00000986     -2911.4216459906  2.20E-06
    46 OT SD       0.10E+00   13.6     0.00001979     -2911.4216265604  1.94E-05
    47 OT DIIS     0.10E+00   17.7     0.00004067     -2911.4215332311  9.33E-05
    48 OT SD       0.10E+00   14.5     0.00000259     -2911.4215998706 -6.66E-05
    49 OT SD       0.10E+00   15.0     0.00000244     -2911.4216027710 -2.90E-06
    50 OT DIIS     0.10E+00   12.8     0.00000243     -2911.4216055174 -2.75E-06
    51 OT SD       0.10E+00   13.7     0.00000242     -2911.4216074881 -1.97E-06
    52 OT SD       0.10E+00   16.1     0.00000242     -2911.4216102144 -2.73E-06
    53 OT SD       0.10E+00   14.4     0.00000246     -2911.4216129347 -2.72E-06
    54 OT SD       0.10E+00   19.0     0.00000257     -2911.4216156312 -2.70E-06
    55 OT SD       0.10E+00   14.4     0.00000296     -2911.4216182151 -2.58E-06
    56 OT SD       0.10E+00   18.9     0.00000415     -2911.4216203189 -2.10E-06
    57 OT SD       0.10E+00   14.4     0.00000718     -2911.4216204327 -1.14E-07
    58 OT SD       0.10E+00   12.8     0.00001387     -2911.4216123100  8.12E-06
    59 OT DIIS     0.10E+00   18.8     0.00002787     -2911.4215699558  4.24E-05
    60 OT DIIS     0.10E+00   14.3     0.00000239     -2911.4215931563 -2.32E-05
    61 OT DIIS     0.10E+00   16.5     0.00000235     -2911.4215940022 -8.46E-07
    62 OT SD       0.10E+00   14.3     0.00000235     -2911.4216007470 -6.74E-06
    63 OT DIIS     0.10E+00   13.8     0.00000236     -2911.4216032934 -2.55E-06
    64 OT DIIS     0.10E+00   19.6     0.00000233     -2911.4216057614 -2.47E-06
    65 OT DIIS     0.10E+00   13.7     0.00000232     -2911.4216123571 -6.60E-06
    66 OT SD       0.10E+00   12.6     0.00000232     -2911.4216126857 -3.29E-07
    67 OT SD       0.10E+00   19.5     0.00000233     -2911.4216152208 -2.54E-06
    68 OT SD       0.10E+00   14.0     0.00000233     -2911.4216177626 -2.54E-06
    69 OT SD       0.10E+00   18.3     0.00000235     -2911.4216203110 -2.55E-06
    70 OT SD       0.10E+00   13.8     0.00000240     -2911.4216228585 -2.55E-06
    71 OT SD       0.10E+00   18.5     0.00000258     -2911.4216253681 -2.51E-06
    72 OT SD       0.10E+00   14.6     0.00000321     -2911.4216276806 -2.31E-06
    73 OT SD       0.10E+00   18.5     0.00000505     -2911.4216291214 -1.44E-06
    74 OT SD       0.10E+00   16.6     0.00000945     -2911.4216268413  2.28E-06
    75 OT DIIS     0.10E+00   14.3     0.00001894     -2911.4216087878  1.81E-05
    76 OT SD       0.10E+00   19.5     0.00000239     -2911.4215963998  1.24E-05
    77 OT SD       0.10E+00   14.5     0.00000227     -2911.4215989035 -2.50E-06
    78 OT DIIS     0.10E+00   18.6     0.00000226     -2911.4216012996 -2.40E-06
    79 OT DIIS     0.10E+00   14.4     0.00000225     -2911.4216035421 -2.24E-06
    80 OT DIIS     0.10E+00   17.5     0.00000225     -2911.4216036629 -1.21E-07
    81 OT SD       0.10E+00   19.7     0.00000225     -2911.4216059677 -2.30E-06
    82 OT SD       0.10E+00   13.6     0.00000225     -2911.4216083504 -2.38E-06
    83 OT SD       0.10E+00   18.0     0.00000226     -2911.4216107385 -2.39E-06
    84 OT SD       0.10E+00   14.4     0.00000226     -2911.4216131335 -2.39E-06
    85 OT SD       0.10E+00   17.9     0.00000227     -2911.4216155358 -2.40E-06
    86 OT SD       0.10E+00   16.8     0.00000230     -2911.4216179429 -2.41E-06
    87 OT SD       0.10E+00   14.1     0.00000239     -2911.4216203395 -2.40E-06
    88 OT SD       0.10E+00   18.9     0.00000270     -2911.4216226587 -2.32E-06
    89 OT SD       0.10E+00   14.1     0.00000369     -2911.4216246231 -1.96E-06
    90 OT SD       0.10E+00   17.7     0.00000629     -2911.4216250898 -4.67E-07
    91 OT SD       0.10E+00   13.3     0.00001207     -2911.4216193510  5.74E-06
    92 OT DIIS     0.10E+00   14.4     0.00002416     -2911.4215879483  3.14E-05
    93 OT SD       0.10E+00   17.5     0.00000229     -2911.4216021328 -1.42E-05
    94 OT DIIS     0.10E+00   14.8     0.00000220     -2911.4216044628 -2.33E-06
    95 OT DIIS     0.10E+00   14.8     0.00000219     -2911.4216091306 -4.67E-06
    96 OT SD       0.10E+00   14.1     0.00000219     -2911.4216127909 -3.66E-06
    97 OT SD       0.10E+00   14.3     0.00000219     -2911.4216150389 -2.25E-06
    98 OT SD       0.10E+00   18.7     0.00000221     -2911.4216172926 -2.25E-06
    99 OT SD       0.10E+00   14.5     0.00000224     -2911.4216195490 -2.26E-06
   100 OT SD       0.10E+00   15.6     0.00000233     -2911.4216217915 -2.24E-06
   101 OT SD       0.10E+00   17.7     0.00000267     -2911.4216239506 -2.16E-06
   102 OT SD       0.10E+00   14.6     0.00000370     -2911.4216257399 -1.79E-06
   103 OT SD       0.10E+00   18.0     0.00000636     -2911.4216259791 -2.39E-07
   104 OT SD       0.10E+00   13.9     0.00001228     -2911.4216197693  6.21E-06
   105 OT DIIS     0.10E+00   14.8     0.00002470     -2911.4215866590  3.31E-05
   106 OT SD       0.10E+00   13.8     0.00000225     -2911.4215991517 -1.25E-05
   107 OT SD       0.10E+00   14.3     0.00000215     -2911.4216013655 -2.21E-06
   108 OT SD       0.10E+00   21.7     0.00000214     -2911.4216034943 -2.13E-06
   109 OT SD       0.10E+00   14.5     0.00000216     -2911.4216056125 -2.12E-06
   110 OT SD       0.10E+00   14.0     0.00000222     -2911.4216077162 -2.10E-06
   111 OT SD       0.10E+00   13.8     0.00000243     -2911.4216097655 -2.05E-06
   112 OT SD       0.10E+00   11.2     0.00000312     -2911.4216115967 -1.83E-06
   113 OT SD       0.10E+00   11.9     0.00000498     -2911.4216125511 -9.54E-07
   114 OT SD       0.10E+00   19.5     0.00000925     -2911.4216099601  2.59E-06
   115 OT DIIS     0.10E+00   14.4     0.00001823     -2911.4215929233  1.70E-05
   116 OT DIIS     0.10E+00   18.8     0.00000212     -2911.4215915994  1.32E-06
   117 OT DIIS     0.10E+00   13.9     0.00000210     -2911.4215918658 -2.66E-07
   118 OT SD       0.10E+00   16.6     0.00000210     -2911.4215924469 -5.81E-07
   119 OT SD       0.10E+00   13.9     0.00000211     -2911.4215944924 -2.05E-06
   120 OT DIIS     0.10E+00   17.2     0.00000216     -2911.4215965230 -2.03E-06
   121 OT DIIS     0.10E+00   13.2     0.00000207     -2911.4216052772 -8.75E-06
   122 OT DIIS     0.10E+00   16.7     0.00000207     -2911.4216099534 -4.68E-06
   123 OT SD       0.10E+00   14.4     0.00000206     -2911.4216116067 -1.65E-06
   124 OT SD       0.10E+00   19.6     0.00000207     -2911.4216136101 -2.00E-06
   125 OT SD       0.10E+00   14.4     0.00000208     -2911.4216156205 -2.01E-06
   126 OT SD       0.10E+00   18.9     0.00000209     -2911.4216176384 -2.02E-06
   127 OT SD       0.10E+00   14.4     0.00000213     -2911.4216196583 -2.02E-06
   128 OT SD       0.10E+00   13.8     0.00000229     -2911.4216216530 -1.99E-06
   129 OT SD       0.10E+00   14.6     0.00000283     -2911.4216235012 -1.85E-06
   130 OT SD       0.10E+00   16.7     0.00000444     -2911.4216246831 -1.18E-06
   131 OT SD       0.10E+00   14.5     0.00000832     -2911.4216229850  1.70E-06
   132 OT DIIS     0.10E+00   20.7     0.00001672     -2911.4216089732  1.40E-05
   133 OT SD       0.10E+00   14.4     0.00000207     -2911.4215997456  9.23E-06
   134 OT SD       0.10E+00   18.0     0.00000202     -2911.4216016887 -1.94E-06
   135 OT DIIS     0.10E+00   14.1     0.00000201     -2911.4216035846 -1.90E-06
   136 OT DIIS     0.10E+00   20.4     0.00000201     -2911.4216050852 -1.50E-06
   137 OT DIIS     0.10E+00   17.5     0.00000201     -2911.4216058087 -7.24E-07
   138 OT SD       0.10E+00   13.9     0.00000201     -2911.4216070630 -1.25E-06
   139 OT SD       0.10E+00   18.1     0.00000201     -2911.4216089545 -1.89E-06
   140 OT SD       0.10E+00   13.8     0.00000201     -2911.4216108484 -1.89E-06
   141 OT SD       0.10E+00   17.2     0.00000201     -2911.4216127454 -1.90E-06
   142 OT SD       0.10E+00   14.1     0.00000202     -2911.4216146454 -1.90E-06
   143 OT SD       0.10E+00   18.7     0.00000204     -2911.4216165457 -1.90E-06
   144 OT SD       0.10E+00   14.3     0.00000212     -2911.4216184332 -1.89E-06
   145 OT SD       0.10E+00   12.4     0.00000241     -2911.4216202501 -1.82E-06
   146 OT SD       0.10E+00   18.2     0.00000337     -2911.4216217525 -1.50E-06
   147 OT SD       0.10E+00   13.9     0.00000586     -2911.4216219156 -1.63E-07
   148 OT SD       0.10E+00   16.3     0.00001144     -2911.4216164311  5.48E-06
   149 OT DIIS     0.10E+00   14.1     0.00002317     -2911.4215871465  2.93E-05
   150 OT SD       0.10E+00   18.1     0.00000211     -2911.4216055210 -1.84E-05

  Leaving inner SCF loop after reaching   150 steps.


  Electronic density on regular grids:      -1176.0000000043       -0.0000000043
  Core density on regular grids:             1175.9999999995       -0.0000000005
  Total charge density on r-space grids:       -0.0000000048
  Total charge density g-space grids:          -0.0000000048

  Overlap energy of the core charge distribution:               0.00000756641713
  Self energy of the core charge distribution:              -7164.62956309980382
  Core Hamiltonian energy:                                   1965.32643375420025
  Hartree energy:                                            2910.29849189362221
  Exchange-correlation energy:                               -620.97000219702124
  Dispersion energy:                                           -1.44697343843684

  Total energy:                                             -2911.42160552102177

  outer SCF iter =    2 RMS gradient =   0.21E-05 energy =      -2911.4216055210

  ----------------------------------- OT ---------------------------------------
  Minimizer      : DIIS                : direct inversion
                                         in the iterative subspace
                                         using   7 DIIS vectors
                                         safer DIIS on
  Preconditioner : FULL_SINGLE_INVERSE : inversion of 
                                         H + eS - 2*(Sc)(c^T*H*c+const)(Sc)^T
  Precond_solver : INVERSE_UPDATE
  stepsize       :    0.10000000                  energy_gap     :    0.10000000
  eps_taylor     :   0.10000E-15                  max_taylor     :             4
  ----------------------------------- OT ---------------------------------------

  Step     Update method      Time    Convergence         Total energy    Change
  ------------------------------------------------------------------------------


     Lanczos converged:  T threshold:   0.100E-02
     Est. extremal eigenvalues:    0.106E+01   0.636E+00
     Est. condition number :    0.167E+01
     Hotelling iter   1 1.00000000   0.827E-01       1.417   163412.784



     Lanczos converged:  T threshold:   0.100E-02
     Est. extremal eigenvalues:    0.103E+01   0.628E+00
     Est. condition number :    0.163E+01
     Hotelling iter   1 1.00000000   0.775E-01       2.280   102097.698

     1 OT DIIS     0.10E+00   45.0     0.00000212     -2911.4216074285 -1.91E-06
     2 OT DIIS     0.10E+00   17.2     0.00000212     -2911.4216095060 -2.08E-06
     3 OT DIIS     0.10E+00   20.7     0.00000210     -2911.4216106706 -1.16E-06
     4 OT SD       0.10E+00   13.9     0.00000210     -2911.4216112837 -6.13E-07
     5 OT SD       0.10E+00   16.1     0.00000211     -2911.4216133611 -2.08E-06
     6 OT SD       0.10E+00   18.0     0.00000211     -2911.4216154467 -2.09E-06
     7 OT SD       0.10E+00   14.0     0.00000212     -2911.4216175415 -2.09E-06
     8 OT SD       0.10E+00   17.7     0.00000215     -2911.4216196439 -2.10E-06
     9 OT SD       0.10E+00   14.1     0.00000224     -2911.4216217391 -2.10E-06
    10 OT SD       0.10E+00   17.7     0.00000259     -2911.4216237548 -2.02E-06
    11 OT SD       0.10E+00   23.6     0.00000376     -2911.4216253562 -1.60E-06
    12 OT SD       0.10E+00   14.3     0.00000692     -2911.4216250099  3.46E-07
    13 OT DIIS     0.10E+00   14.8     0.00001422     -2911.4216156771  9.33E-06
    14 OT SD       0.10E+00   20.7     0.00000210     -2911.4216051809  1.05E-05
    15 OT DIIS     0.10E+00   14.2     0.00000206     -2911.4216071871 -2.01E-06
    16 OT DIIS     0.10E+00   15.0     0.00000206     -2911.4216076292 -4.42E-07
    17 OT SD       0.10E+00   18.0     0.00000206     -2911.4216097084 -2.08E-06
    18 OT SD       0.10E+00   13.5     0.00000206     -2911.4216116961 -1.99E-06
    19 OT SD       0.10E+00   20.1     0.00000206     -2911.4216136897 -1.99E-06
    20 OT SD       0.10E+00   14.0     0.00000207     -2911.4216156902 -2.00E-06
    21 OT SD       0.10E+00   14.5     0.00000209     -2911.4216176967 -2.01E-06
    22 OT SD       0.10E+00   19.9     0.00000215     -2911.4216197004 -2.00E-06
    23 OT SD       0.10E+00   13.7     0.00000238     -2911.4216216546 -1.95E-06
    24 OT SD       0.10E+00   14.2     0.00000327     -2911.4216233339 -1.68E-06
    25 OT SD       0.10E+00   16.9     0.00000584     -2911.4216236631 -3.29E-07
    26 OT SD       0.10E+00   13.5     0.00001206     -2911.4216175231  6.14E-06
    27 OT DIIS     0.10E+00   14.3     0.00002600     -2911.4215804967  3.70E-05
    28 OT SD       0.10E+00   18.4     0.00000206     -2911.4216055797 -2.51E-05
    29 OT DIIS     0.10E+00   14.5     0.00000203     -2911.4216075130 -1.93E-06
    30 OT DIIS     0.10E+00   14.4     0.00000202     -2911.4216080697 -5.57E-07
    31 OT SD       0.10E+00   17.7     0.00000202     -2911.4216103500 -2.28E-06
    32 OT SD       0.10E+00   13.9     0.00000202     -2911.4216122641 -1.91E-06
    33 OT SD       0.10E+00   14.2     0.00000203     -2911.4216141842 -1.92E-06
    34 OT SD       0.10E+00   11.6     0.00000204     -2911.4216161097 -1.93E-06
    35 OT SD       0.10E+00   12.7     0.00000209     -2911.4216180349 -1.93E-06
    36 OT SD       0.10E+00   14.2     0.00000225     -2911.4216199308 -1.90E-06
    37 OT SD       0.10E+00   16.9     0.00000284     -2911.4216216656 -1.73E-06
    38 OT SD       0.10E+00   14.3     0.00000461     -2911.4216226472 -9.82E-07
    39 OT SD       0.10E+00   17.2     0.00000897     -2911.4216201952  2.45E-06
    40 OT DIIS     0.10E+00   14.3     0.00001869     -2911.4216020687  1.81E-05
    41 OT SD       0.10E+00   14.0     0.00000203     -2911.4216086665 -6.60E-06
    42 OT SD       0.10E+00   20.4     0.00000199     -2911.4216105318 -1.87E-06
    43 OT SD       0.10E+00   18.9     0.00000199     -2911.4216123733 -1.84E-06
    44 OT SD       0.10E+00   14.1     0.00000200     -2911.4216142133 -1.84E-06
    45 OT SD       0.10E+00   17.4     0.00000206     -2911.4216160444 -1.83E-06
    46 OT SD       0.10E+00   13.8     0.00000233     -2911.4216178154 -1.77E-06
    47 OT SD       0.10E+00   20.2     0.00000330     -2911.4216192760 -1.46E-06
    48 OT SD       0.10E+00   14.1     0.00000609     -2911.4216192194  5.66E-08
    49 OT SD       0.10E+00   21.2     0.00001277     -2911.4216118367  7.38E-06
    50 OT DIIS     0.10E+00   14.6     0.00002774     -2911.4215691399  4.27E-05
    51 OT DIIS     0.10E+00   15.7     0.00000197     -2911.4216007477 -3.16E-05
    52 OT DIIS     0.10E+00   19.8     0.00000195     -2911.4216015806 -8.33E-07
    53 OT SD       0.10E+00   14.1     0.00000195     -2911.4216050287 -3.45E-06
    54 OT SD       0.10E+00   18.5     0.00000197     -2911.4216067950 -1.77E-06
    55 OT SD       0.10E+00   14.0     0.00000203     -2911.4216085474 -1.75E-06
    56 OT SD       0.10E+00   20.8     0.00000229     -2911.4216102383 -1.69E-06
    57 OT SD       0.10E+00   14.5     0.00000317     -2911.4216116533 -1.41E-06
    58 OT SD       0.10E+00   17.9     0.00000560     -2911.4216118302 -1.77E-07
    59 OT DIIS     0.10E+00   18.3     0.00001128     -2911.4216064189  5.41E-06
    60 OT DIIS     0.10E+00   13.9     0.00000194     -2911.4216003933  6.03E-06
    61 OT DIIS     0.10E+00   23.2     0.00000192     -2911.4216039209 -3.53E-06
    62 OT DIIS     0.10E+00   14.3     0.00000192     -2911.4216099471 -6.03E-06
    63 OT DIIS     0.10E+00   22.0     0.00000190     -2911.4216127698 -2.82E-06
    64 OT DIIS     0.10E+00   14.4     0.00000190     -2911.4216157148 -2.94E-06
    65 OT SD       0.10E+00   20.4     0.00000189     -2911.4216187504 -3.04E-06
    66 OT SD       0.10E+00   14.4     0.00000190     -2911.4216204377 -1.69E-06
    67 OT SD       0.10E+00   14.4     0.00000191     -2911.4216221341 -1.70E-06
    68 OT SD       0.10E+00   19.5     0.00000192     -2911.4216238410 -1.71E-06
    69 OT SD       0.10E+00   14.0     0.00000195     -2911.4216255567 -1.72E-06
    70 OT SD       0.10E+00   17.3     0.00000205     -2911.4216272670 -1.71E-06
    71 OT SD       0.10E+00   13.9     0.00000242     -2911.4216289005 -1.63E-06
    72 OT SD       0.10E+00   25.1     0.00000366     -2911.4216301197 -1.22E-06
    73 OT SD       0.10E+00   14.4     0.00000693     -2911.4216293465  7.73E-07
    74 OT DIIS     0.10E+00   22.8     0.00001449     -2911.4216191724  1.02E-05
    75 OT SD       0.10E+00   22.5     0.00000186     -2911.4216111775  7.99E-06
    76 OT DIIS     0.10E+00   14.4     0.00000185     -2911.4216127892 -1.61E-06
    77 OT SD       0.10E+00   23.9     0.00000185     -2911.4216157163 -2.93E-06
    78 OT SD       0.10E+00   14.0     0.00000185     -2911.4216173227 -1.61E-06
    79 OT SD       0.10E+00   16.5     0.00000187     -2911.4216189293 -1.61E-06
    80 OT SD       0.10E+00   14.4     0.00000192     -2911.4216205287 -1.60E-06
    81 OT SD       0.10E+00   14.0     0.00000212     -2911.4216220856 -1.56E-06
    82 OT SD       0.10E+00   19.1     0.00000283     -2911.4216234433 -1.36E-06
    83 OT SD       0.10E+00   18.0     0.00000483     -2911.4216239123 -4.69E-07
    84 OT SD       0.10E+00   14.0     0.00000952     -2911.4216204464  3.47E-06
    85 OT DIIS     0.10E+00   18.8     0.00001973     -2911.4215995221  2.09E-05
    86 OT SD       0.10E+00   14.1     0.00000187     -2911.4216092226 -9.70E-06
    87 OT DIIS     0.10E+00   14.9     0.00000183     -2911.4216107984 -1.58E-06
    88 OT DIIS     0.10E+00   17.9     0.00000182     -2911.4216128290 -2.03E-06
    89 OT SD       0.10E+00   14.0     0.00000181     -2911.4216136331 -8.04E-07
    90 OT SD       0.10E+00   14.3     0.00000182     -2911.4216151717 -1.54E-06
    91 OT SD       0.10E+00   13.6     0.00000187     -2911.4216167064 -1.53E-06
    92 OT SD       0.10E+00   14.9     0.00000204     -2911.4216182084 -1.50E-06
    93 OT SD       0.10E+00   14.3     0.00000270     -2911.4216195375 -1.33E-06
    94 OT SD       0.10E+00   17.5     0.00000467     -2911.4216200296 -4.92E-07
    95 OT SD       0.10E+00   14.6     0.00000951     -2911.4216165402  3.49E-06
    96 OT DIIS     0.10E+00   15.4     0.00002038     -2911.4215941301  2.24E-05
