284
Lattice="25.513 0.0 0.0 0.0 13.8536 0.0 0.0 0.0 42.03388919086926" Properties=species:S:1:pos:R:3:spacegroup_kinds:I:1:tags:I:1:forces:R:3 stress="0.0025499430787979055 0.000498845276190535 2.711792470578039e-09 0.000498845276190535 0.0024743569506464743 -1.9362557744837357e-08 2.711792470578039e-09 -1.9362557744837357e-08 8.12511351277502e-09" energy=-2023.4461819904536 pbc="T T T"
Ca       0.19691301       1.81563953       7.82559658        0        1       0.00000047      -0.00000091      -0.00000041
Ca       4.53824832       5.45001235       9.12438051        0        1       0.00000069      -0.00000060      -0.00000086
Ca       9.49252648       0.96913187       6.14729580        0        1       0.00000025      -0.00000123      -0.00000034
Ca      11.15233484       4.60122965       7.43853928        1        1       0.00000202      -0.00000251      -0.00000060
Ca       3.00450555       0.31618679       5.81980439        1        1      -0.00000117       0.00000179      -0.00000007
Ca       6.59504132       2.02739765       8.81312225        1        1       0.00000176       0.00000139       0.00000000
S        3.40406848       1.95732653       9.19367673        2        1      -0.00000053      -0.00000149      -0.00000066
S        7.73565215       5.32681311       9.28090476        2        1      -0.00000021      -0.00000061       0.00000015
S       12.20271007      13.52174972       5.30235746        2        1       0.00000114      -0.00000135      -0.00000057
O        4.43374893       0.81790238       9.40168992        3        1       0.00000057      -0.00000115      -0.00000076
O        8.88780040       5.53146861       8.39287402        3        1       0.00000019       0.00000097      -0.00000036
O       13.36554274       0.60948972       5.41518731        3        1       0.00000054      -0.00000240       0.00000113
O        2.63961343       1.59975440       7.93432555        4        1       0.00000120      -0.00000229      -0.00000176
O        6.93935368       6.57260456       9.40836150        4        1      -0.00000067       0.00000147       0.00000112
O       11.36770318       7.23886425       6.90816452        4        1      -0.00000256       0.00000070      -0.00000163
O        1.81523044       4.91912924       5.68402975        5        1      -0.00000188      -0.00000395      -0.00000237
O        6.80216994       4.33592451       8.67419414        5        1      -0.00000162       0.00000067      -0.00000099
O       11.14336226       0.24170320       4.47869800        5        1      -0.00000035       0.00000273      -0.00000013
O        4.32254113       3.11422185       8.86525089        6        1      -0.00000083      -0.00000121      -0.00000179
O        8.13479208       4.85335309      10.60712674        6        1       0.00000109      -0.00000183       0.00000240
O       12.60228597       5.51468571       5.75847887        6        1      -0.00000095      -0.00000078       0.00000009
S        1.46215556       5.28044732       9.04582106        7        1      -0.00000084      -0.00000045       0.00000015
S        5.97585949       0.54156335       5.79725214        7        1      -0.00000051      -0.00000021       0.00000299
S       10.18003369       1.83014665       9.44925995        7        1      -0.00000115      -0.00000046      -0.00000026
O        0.69898511       4.01718901       8.84769554        8        1      -0.00000223      -0.00000118      -0.00000004
O        5.08734475       0.82158439       4.67054176        8        1      -0.00000094      -0.00000148       0.00000356
O        9.69856685       5.14397530       5.73287893        8        1       0.00000047      -0.00000383       0.00000044
O        2.39337280       5.50376142       7.91237560        9        1      -0.00000248       0.00000283       0.00000009
O        6.15449096       1.77989527       6.60426961        9        1      -0.00000226       0.00000069       0.00000116
O       10.94245416       0.53535678       9.15299271        9        1       0.00000078      -0.00000164      -0.00000282
O        0.43139470       6.34991764       9.05958789       10        1       0.00000094      -0.00000037       0.00000031
O        4.83123208       6.34341087       6.99838729       10        1       0.00000056      -0.00000044      -0.00000030
O        9.06894478       1.90701921       8.38645419       10        1      -0.00000151       0.00000066      -0.00000304
O        2.28507053       5.23612376      10.24756632       11        1       0.00000026       0.00000022      -0.00000127
O        6.84746210       6.21789944       5.64471895       11        1       0.00000060      -0.00000097      -0.00000192
O       11.18833263       2.91417496       9.13954747       11        1       0.00000075      -0.00000032       0.00000003
O        2.94439620       2.53069603       5.00522785       12        1       0.00000097      -0.00000089       0.00000127
O        8.46970254       2.92067318       5.48999738       12        1      -0.00000025      -0.00000041       0.00000005
O       11.32818956       2.51308540       6.41142728       12        1      -0.00000085       0.00000062       0.00000181
H        3.83337587       2.73975669       4.70037563       13        1      -0.00000110       0.00000041      -0.00000281
H        8.89279822       3.85042487       5.58210009       13        1       0.00000108      -0.00000006       0.00000082
H       11.69788619       2.61918769       5.52117443       13        1       0.00000106       0.00000125      -0.00000102
H        2.50035430       3.38601154       5.23123407       14        1      -0.00000176      -0.00000285      -0.00000062
H        7.52667853       2.98169898       5.69219632       14        1      -0.00000043      -0.00000012       0.00000160
H       10.17094141       5.19731213       4.89034196       14        1      -0.00000047       0.00000109       0.00000072
Ca       0.09552976       8.77839717       8.34049117        0        1       0.00000014       0.00000207      -0.00000122
Ca       4.66361207      12.35251341       8.65647609        0        1      -0.00000000      -0.00000084       0.00000101
Ca       8.91086118       7.16188120       6.48036185        0        1       0.00000025       0.00000014       0.00000147
Ca      10.97085199      12.02808989       8.48104487        1        1       0.00000114      -0.00000166       0.00000194
Ca       2.63207953       7.12400145       6.00743008        1        1      -0.00000109      -0.00000119       0.00000014
Ca       6.55989133       8.88384355       8.99455903        1        1       0.00000050       0.00000085      -0.00000113
S        3.43526507       8.95354859       9.29711201        2        1      -0.00000051      -0.00000117       0.00000180
S        7.89629008      12.37344789       8.63631080        2        1      -0.00000031       0.00000147       0.00000159
S       12.20991317       6.92281831       5.66283029        2        1      -0.00000056      -0.00000024       0.00000060
O        4.39639492       7.81188914       9.59242080        3        1       0.00000006      -0.00000012      -0.00000006
O        8.76495856      12.76854110       7.53227805        3        1      -0.00000010      -0.00000019       0.00000020
O       13.43071383       7.79148281       5.84042462        3        1      -0.00000125       0.00000011      -0.00000028
O        2.52496498       8.52266719       8.17178801        4        1       0.00000114      -0.00000041       0.00000021
O        7.04480345      13.50082324       9.09585003        4        1      -0.00000370       0.00000097      -0.00000139
O       11.64973113      13.45020056       6.70452905        4        1       0.00000114      -0.00000012       0.00000003
O        2.38353496      12.04434004       4.96271610        5        1       0.00000295       0.00000178      -0.00000022
O        6.95862199      11.28287432       8.27719102        5        1      -0.00000009      -0.00000051       0.00000218
O       11.47291700       7.25604094       4.48155598        5        1      -0.00000007      -0.00000152       0.00000021
O        4.39030072      10.02929789       8.75387563        6        1      -0.00000038      -0.00000144       0.00000109
O        8.78149236      11.91208803       9.73378933        6        1      -0.00000129       0.00000144       0.00000136
O       12.67931254      12.23356260       4.84743152        6        1       0.00000040       0.00000017       0.00000304
S        1.57482091      12.32752714       8.83621869        7        1      -0.00000073       0.00000195      -0.00000120
S        5.74729243       7.07085424       6.07942683        7        1      -0.00000065      -0.00000149      -0.00000161
S        9.92548141       8.80157255       9.66581390        7        1       0.00000146       0.00000196       0.00000285
O        0.72975972      11.11696720       8.72721415        8        1       0.00000297      -0.00000166      -0.00000129
O        4.89978146       7.55727062       4.99154032        8        1      -0.00000006      -0.00000038       0.00000247
O       10.52806366      10.88533871       6.49462574        8        1       0.00000156      -0.00000030       0.00000103
O        2.43379747      12.49247664       7.64074829        9        1      -0.00000062       0.00000182      -0.00000088
O        6.37512595       8.21643877       6.81112240        9        1       0.00000250       0.00000069      -0.00000320
O       10.61638640       7.53204962      10.00159518        9        1       0.00000123       0.00000023       0.00000090
O        0.61699929      13.45932765       8.95205523       10        1      -0.00000248       0.00000153       0.00000057
O        5.22523227      13.40358991       6.65133954       10        1       0.00000016       0.00000009       0.00000269
O        8.89433313       8.55918603       8.56592697       10        1       0.00000077      -0.00000049      -0.00000114
O        2.47187818      12.25601612       9.99183281       11        1       0.00000085       0.00000265      -0.00000232
O        7.28390109       0.04433257       5.41141698       11        1      -0.00000023       0.00000012       0.00000180
O       10.98603657       9.73055225       9.05372736       11        1       0.00000484       0.00000012      -0.00000076
O        2.86818960       9.29816076       5.06016869       12        1       0.00000067      -0.00000150      -0.00000299
O        8.68972895       9.30367996       5.57686088       12        1      -0.00000397      -0.00000093      -0.00000010
O       11.65731670      10.11190927       6.11407722       12        1       0.00000111      -0.00000032      -0.00000066
H        3.78348628       9.34586827       4.75984698       13        1      -0.00000306       0.00000103      -0.00000038
H        9.34328939       9.98815037       5.90500912       13        1       0.00000115       0.00000018      -0.00000035
H       14.67551853      11.85637260       6.48566846       13        1       0.00000178      -0.00000037      -0.00000180
H        2.51302808      10.21295415       5.04156390       14        1       0.00000015      -0.00000096      -0.00000096
H        7.80866552       9.62540880       5.80376169       14        1       0.00000196       0.00000141       0.00000223
H       12.15223117      10.74539933       5.52755731       14        1      -0.00000200      -0.00000052       0.00000288
Ca      12.93877534       1.50671164       7.73551030        0        1      -0.00000137      -0.00000306       0.00000098
Ca      17.59740894       5.10835802       8.27124370        0        1      -0.00000064      -0.00000105       0.00000039
Ca      22.13066387       0.17095064       5.52814202        0        1      -0.00000011       0.00000143       0.00000063
Ca      23.92415537       5.04880461       8.17342265        1        1       0.00000184       0.00000021       0.00000304
Ca      15.71027467       0.33955963       5.21754259        1        1       0.00000115      -0.00000187       0.00000100
Ca      19.37661299       1.48973314       8.40222550        1        1       0.00000013      -0.00000131      -0.00000016
S       16.20567479       1.74468642       8.50044690        2        1       0.00000107      -0.00000047      -0.00000112
S       20.75908275       5.10843046       8.54108499        2        1       0.00000085      -0.00000105       0.00000136
S       25.09945743      13.50168807       5.64776374        2        1      -0.00000144      -0.00000098      -0.00000174
O       17.07160995       0.49760851       8.73869984        3        1      -0.00000171      -0.00000096      -0.00000173
O       21.46408622       5.43505366       7.27948367        3        1       0.00000001       0.00000003       0.00000112
O        0.72436518       0.59244490       5.86127725        3        1      -0.00000187      -0.00000176      -0.00000095
O       15.50721861       1.52321009       7.18176359        4        1       0.00000153      -0.00000058       0.00000101
O       19.80278577       6.19917276       8.90271631        4        1       0.00000046      -0.00000080      -0.00000015
O       24.33523352       6.17663721       6.17863640        4        1       0.00000281       0.00000060       0.00000330
O       15.42087221       5.22165558       4.77682599        5        1       0.00000138       0.00000004       0.00000094
O       19.87411697       3.92583654       8.35237255        5        1       0.00000110      -0.00000087      -0.00000056
O       24.31958496       0.04488001       4.48506283        5        1       0.00000057       0.00000179      -0.00000101
O       17.27888424       2.81841757       8.28731539        6        1       0.00000056      -0.00000090       0.00000029
O       21.78277428       4.89704060       9.54952324        6        1       0.00000227      -0.00000084      -0.00000027
O        0.49554312       6.47480539       4.42753891        6        1      -0.00000011      -0.00000139      -0.00000157
S       14.48785023       4.95856343       8.30112640        7        1       0.00000007      -0.00000152       0.00000018
S       18.75016716       0.42221301       5.19246616        7        1       0.00000064      -0.00000013       0.00000241
S       22.48940110       1.75506463       8.98356487        7        1       0.00000111      -0.00000041      -0.00000173
O       13.84611335       3.69954963       7.93653008        8        1      -0.00000023      -0.00000092       0.00000232
O       17.90605139       0.92834787       4.10165821        8        1       0.00000158      -0.00000214       0.00000166
O       22.82881017       4.70575143       4.97596368        8        1      -0.00000307       0.00000090      -0.00000272
O       15.40525127       5.41963963       7.23579013        9        1       0.00000061      -0.00000173       0.00000006
O       19.15543986       1.53799781       6.08417724        9        1      -0.00000021       0.00000112       0.00000177
O       23.24399163       0.52299406       9.49585256        9        1       0.00000186      -0.00000077      -0.00000218
O       13.40806790       5.93125502       8.55093500       10        1      -0.00000007      -0.00000138      -0.00000255
O       17.98824243       6.08231693       6.28014027       10        1       0.00000053       0.00000090       0.00000111
O       21.70034633       1.30096894       7.77130409       10        1      -0.00000052      -0.00000127      -0.00000096
O       15.34744712       4.80386257       9.51136279       11        1      -0.00000112      -0.00000067       0.00000055
O       19.81989497       6.27816896       4.66750937       11        1       0.00000058      -0.00000252      -0.00000067
O       23.59916956       2.67234691       8.47303459       11        1       0.00000065       0.00000005      -0.00000282
O       15.80617234       2.55628566       4.29123267       12        1      -0.00000232      -0.00000044       0.00000215
O       21.62936381       2.35378228       4.86130253       12        1       0.00000054       0.00000032      -0.00000070
O       25.07767677       3.56305173       6.32403998       12        1       0.00000036       0.00000130       0.00000027
H       16.73828609       2.58397557       4.03341267       13        1       0.00000189       0.00000072       0.00000050
H       22.10644205       3.22054130       4.84944060       13        1       0.00000192       0.00000143      -0.00000112
H        0.34667011       4.09891221       6.01649027       13        1      -0.00000066      -0.00000018      -0.00000276
H       15.53543743       3.47894801       4.50168437       14        1      -0.00000163      -0.00000014      -0.00000048
H       20.73523573       2.53283057       5.18617432       14        1       0.00000339       0.00000134       0.00000031
H       24.37383693       3.70942631       5.65862347       14        1       0.00000057      -0.00000050       0.00000557
Ca      12.87862731       8.92295950       7.86625770        0        1       0.00000061      -0.00000170       0.00000016
Ca      17.23066576      12.09961833       7.89982012        0        1       0.00000259       0.00000047       0.00000075
Ca      22.01627909       6.90125059       5.49757370        0        1       0.00000052       0.00000085       0.00000133
Ca      23.70496873      12.18800055       8.76465121        1        1      -0.00000180      -0.00000003      -0.00000100
Ca      15.73124101       7.35254103       5.68738362        1        1      -0.00000058      -0.00000114       0.00000042
Ca      19.49911566       8.54048114       8.53987682        1        1      -0.00000029      -0.00000011      -0.00000073
S       16.38947518       8.75953819       8.89916971        2        1      -0.00000092       0.00000062      -0.00000065
S       20.64305155      11.91260412       7.98793443        2        1      -0.00000041      -0.00000009      -0.00000115
S       25.07836016       7.15095708       5.31852819        2        1       0.00000098       0.00000072      -0.00000101
O       17.24649715       7.49364907       9.15981098        3        1       0.00000120       0.00000045       0.00000228
O       21.73732487      12.23915426       7.04701861        3        1       0.00000043      -0.00000091      -0.00000085
O        0.39754300       7.99402057       6.23892536        3        1       0.00000440       0.00000073      -0.00000061
O       15.36526573       8.38620996       7.85910988        4        1      -0.00000040      -0.00000161      -0.00000073
O       19.62202668      12.96647500       7.99751735        4        1       0.00000007       0.00000049       0.00000205
O       24.20850806      13.71090342       6.86193541        4        1      -0.00000088       0.00000141      -0.00000085
O       15.58459084      12.06056529       6.21253273        5        1       0.00000038      -0.00000229       0.00000112
O       19.97466083      10.66085545       7.57216367        5        1      -0.00000004       0.00000005      -0.00000181
O       24.05192484       7.93926736       4.64812557        5        1      -0.00000067      -0.00000150       0.00000108
O       17.41086462       9.68234302       8.24148694        6        1      -0.00000161       0.00000120      -0.00000120
O       21.29406518      11.74982474       9.29310590        6        1       0.00000153      -0.00000055      -0.00000003
O        0.07443738      12.13077878       5.61602029        6        1      -0.00000059       0.00000104       0.00000110
S       13.93508877      12.10476962       9.09856982        7        1       0.00000144      -0.00000037       0.00000111
S       18.84400758       7.00019042       5.47147915        7        1       0.00000063      -0.00000006      -0.00000125
S       22.90073186       8.14077995       9.66156965        7        1      -0.00000165       0.00000265      -0.00000114
O       13.35942304      11.25905777       7.99427523        8        1      -0.00000354      -0.00000148      -0.00000220
O       17.91181043       7.80470486       4.68055646        8        1      -0.00000168      -0.00000018      -0.00000025
O       22.60528383      11.70124722       4.85609242        8        1       0.00000268       0.00000024       0.00000210
O       15.30862636      11.67285118       9.38503499        9        1       0.00000050      -0.00000106      -0.00000251
O       19.62422649       7.86605389       6.40363741        9        1       0.00000134       0.00000056      -0.00000084
O       23.49862584       7.42885786       8.44121250        9        1       0.00000175      -0.00000144       0.00000453
O       13.94231837      13.49902077       8.64405154       10        1      -0.00000086      -0.00000014      -0.00000141
O       17.86239405      13.34247114       5.94826406       10        1      -0.00000152       0.00000027       0.00000119
O       21.62497328       8.78749622       9.20414657       10        1       0.00000082      -0.00000114      -0.00000174
O       13.02809469      11.94408356      10.23637501       11        1      -0.00000045      -0.00000189       0.00000081
O       19.94925318      13.58776850       4.72317459       11        1       0.00000041      -0.00000090       0.00000216
O       23.92807458       9.26298251       9.91747342       11        1      -0.00000136       0.00000300       0.00000371
O       16.00652203       9.67762113       5.17807993       12        1       0.00000159      -0.00000076      -0.00000265
O       21.88408748       9.32528705       5.73453363       12        1      -0.00000158      -0.00000119      -0.00000195
O       24.12683104      10.37639977       7.11930620       12        1      -0.00000327      -0.00000152      -0.00000202
H       16.86963686       9.70364624       4.75157912       13        1       0.00000061      -0.00000102       0.00000116
H       22.19148670      10.04286649       5.12593005       13        1      -0.00000140      -0.00000003      -0.00000021
H       24.60588496      10.85901055       6.40324274       13        1       0.00000062      -0.00000004      -0.00000139
H       15.82354456      10.60730972       5.53878164       14        1       0.00000036       0.00000010       0.00000174
H       21.11212396       9.70380754       6.18704017       14        1      -0.00000056      -0.00000115      -0.00000083
H       23.33854543       9.96608934       6.69743967       14        1      -0.00000163       0.00000307      -0.00000046
O        7.11567672      13.17253174      14.89932998        0        0      -0.00000105       0.00000171      -0.00000668
H        9.87137953       1.72388299      18.61879425        0        0      -0.00000399       0.00000138      -0.00000210
H        7.47230518      13.40149378      15.78267279        0        0       0.00000040      -0.00000425       0.00000400
O       13.33858127      10.91831193      15.09293715        0        0      -0.00000049      -0.00000176      -0.00000383
H       14.02612102      11.47371507      15.53114871        0        0       0.00000159       0.00000143       0.00000079
H       13.45002063      10.03398771      15.44742325        0        0      -0.00000257       0.00000119       0.00000521
O       17.09805641      13.42644583      14.26999531        0        0      -0.00000095       0.00000152      -0.00000029
H       17.88063721      13.12684067      13.72265537        0        0       0.00000078       0.00000259      -0.00000004
H       16.83976365       0.41012143      13.87044019        0        0       0.00000029      -0.00000293      -0.00000165
O        8.80263477       0.20579264      11.88867968        0        0       0.00000406       0.00000216       0.00000269
H        8.64084782      13.14031195      12.23991924        0        0      -0.00000232      -0.00000224       0.00000013
H        9.48157657       0.10260477      11.20674554        0        0       0.00000101       0.00000048      -0.00000386
O        8.45073438      11.69741942      13.08903207        0        0      -0.00000314      -0.00000202      -0.00000133
H        7.98535976      12.11104229      13.85933582        0        0       0.00000407       0.00000022      -0.00000131
H        9.38469551      11.57076938      13.39165549        0        0       0.00000202       0.00000244      -0.00000051
O       23.64826548      11.58441877      11.15951436        0        0       0.00000359      -0.00000100      -0.00000582
H       22.72264793      11.61776530      11.54287445        0        0       0.00000117      -0.00000028      -0.00000026
H       23.77331650      10.62342318      10.97623170        0        0      -0.00000003       0.00000426       0.00000336
O       16.84287343      10.20801560      11.51750938        0        0       0.00000058      -0.00000092       0.00000006
H       16.43987430       9.89436193      10.68671036        0        0      -0.00000167      -0.00000030       0.00000083
H       17.76564317      11.37277208      10.84339308        0        0      -0.00000216       0.00000116       0.00000035
O       11.05717900       3.37938862      15.43470944        0        0       0.00000166       0.00000490       0.00000545
H       11.36941378       3.25688975      16.33933611        0        0      -0.00000018      -0.00000302      -0.00000887
H       10.08420717       3.45486277      15.55506334        0        0       0.00000006       0.00000230      -0.00000028
O        5.37345258       4.89695684      11.34658868        0        0       0.00000229       0.00000077      -0.00000137
H        4.96135385       5.11886820      12.18676350        0        0      -0.00000421       0.00000152       0.00000120
H        6.33562560       5.02980658      11.43728424        0        0      -0.00000079      -0.00000123       0.00000094
O       13.24017524       7.91159250      10.15460887        0        0       0.00000002      -0.00000069      -0.00000003
H       12.29322710       7.87907556      10.43341739        0        0      -0.00000223       0.00000000       0.00000005
H       13.31266141       7.05641280       9.64529224        0        0      -0.00000203       0.00000213      -0.00000106
O        4.64576450      12.66961702      13.97431543        0        0      -0.00000197      -0.00000356       0.00000109
H        4.94316041      12.78075291      13.05564939        0        0      -0.00000057       0.00000398      -0.00000089
H        5.46641513      12.73289755      14.51188965        0        0       0.00000005      -0.00000018       0.00000174
O       22.18341388       0.39165805      11.99798696        0        0       0.00000013       0.00000190       0.00000595
H       21.21602667       0.43501532      11.94887128        0        0       0.00000183       0.00000373       0.00000138
H       22.49773581       0.37956237      11.07177715        0        0      -0.00000222       0.00000100      -0.00000225
O       21.13578626      11.14484506      11.89073573        0        0       0.00000452       0.00000027      -0.00000091
H       20.49832356      11.70311521      12.37312775        0        0      -0.00000415      -0.00000056       0.00000093
H       20.89040198      11.25501404      10.95324743        0        0       0.00000224       0.00000194      -0.00000071
O        7.24799912       2.24007911      11.10255989        0        0       0.00000072      -0.00000107      -0.00000044
H        7.73275075       3.09261497      11.12009490        0        0       0.00000110       0.00000287       0.00000169
H        7.84335301       1.51832182      11.43352990        0        0      -0.00000567       0.00000149       0.00000170
O       24.20441552       1.31149639      13.34002441        0        0       0.00000154      -0.00000375       0.00000002
H       24.01116579       1.92797323      14.04987135        0        0       0.00000028       0.00000012       0.00000044
H       23.33440436       1.12156604      12.88878261        0        0      -0.00000136      -0.00000004      -0.00000046
O       15.32948907      12.49443913      15.97948587        0        0      -0.00000449       0.00000073       0.00000114
H       15.73273575      12.51011365      16.84975941        0        0       0.00000208       0.00000213       0.00000213
H       16.03376891      12.76360899      15.33243440        0        0       0.00000104       0.00000143      -0.00000035
O       24.89231161      12.51889610      13.45555133        0        0       0.00000169      -0.00000174       0.00000017
H       24.46369052      12.19155779      12.63684146        0        0      -0.00000108      -0.00000052      -0.00000032
H       24.61233919      13.45333270      13.53967177        0        0      -0.00000052      -0.00000127       0.00000155
O        7.15924099      10.14209302      10.96748344        0        0      -0.00000326       0.00000237       0.00000230
H        7.83721022      10.79288978      10.66203994        0        0       0.00000176      -0.00000175      -0.00000268
H        7.33442672      10.07866854      11.91822071        0        0       0.00000037      -0.00000132       0.00000339
O       11.01383980      11.94581983      13.86889370        0        0       0.00000196      -0.00000080      -0.00000257
H       10.93052728      12.89197225      14.20001593        0        0      -0.00000039       0.00000111       0.00000149
H       11.77109008      11.54057402      14.31931263        0        0      -0.00000253       0.00000448       0.00000305
O        5.22816151      12.90641535      11.16390391        0        0      -0.00000059       0.00000081      -0.00000011
H        4.80978205      13.72900861      10.81772289        0        0      -0.00000049       0.00000119       0.00000005
H        6.17825158      13.04513227      11.01479094        0        0       0.00000015       0.00000199      -0.00000290