 DBCSR| CPU Multiplication driver                                           XSMM (U)
 DBCSR| Multrec recursion limit                                              512 (U)
 DBCSR| Multiplication stack size                                           1000 (D)
 DBCSR| Maximum elements for images                                    UNLIMITED (U)
 DBCSR| Multiplicative factor virtual images                                   1 (U)
 DBCSR| Use multiplication densification                                       T (D)
 DBCSR| Multiplication size stacks                                             3 (U)
 DBCSR| Use memory pool for CPU allocation                                     F (U)
 DBCSR| Number of 3D layers                                               SINGLE (U)
 DBCSR| Use MPI memory allocation                                              F (U)
 DBCSR| Use RMA algorithm                                                      F (U)
 DBCSR| Use Communication thread                                               T (U)
 DBCSR| Communication thread load                                             30 (D)
 DBCSR| MPI: My process id                                                     0
 DBCSR| MPI: Number of processes                                               1
 DBCSR| OMP: Current number of threads                                        16
 DBCSR| OMP: Max number of threads                                            16
 DBCSR| Split modifier for TAS multiplication algorithm                  1.0E+00 (U)


  **** **** ******  **  PROGRAM STARTED AT               2026-01-22 06:14:12.377
 ***** ** ***  *** **   PROGRAM STARTED ON                          2fe93fb97c4f
 **    ****   ******    PROGRAM STARTED BY                             <unknown>
 ***** **    ** ** **   PROGRAM PROCESS ID                                   678
  **** **  *******  **  PROGRAM STARTED IN                             /mnt/cp2k

 CP2K| version string:                 CP2K version 2026.1 (Development Version)
 CP2K| source code revision number:                                   4e96ea1a00
 CP2K| cp2kflags: omp libint fftw3 libxc elpa parallel scalapack mpi_f08 cosma a
 CP2K|            ce deepmd xsmm dbcsr_acc plumed2 spglib libdftd4 mctc-lib tbli
 CP2K|            ite sirius libvori libbqb libtorch mimic offload_cuda libvdwxc
 CP2K|            c hdf5 trexio libsmeagol greenx
 CP2K| is freely available from                            https://www.cp2k.org/
 CP2K| Program compiled at                                   2026-01-16 05:48:39
 CP2K| Program compiled on                                                      
 CP2K| Program compiled for                                               x86_64
 CP2K| Data directory path                     /opt/cp2k/install/share/cp2k/data
 CP2K| Input file name                                               geo_opt.inp

 GLOBAL| Force Environment number                                              1
 GLOBAL| Basis set file name                                    BASIS_MOLOPT_UZH
 GLOBAL| Potential file name                                       POTENTIAL_UZH
 GLOBAL| MM Potential file name                                     MM_POTENTIAL
 GLOBAL| Coordinate file name              conventional_cell_slab_020_L1_2x2.xyz
 GLOBAL| Method name                                                        CP2K
 GLOBAL| Project name                                         gypsum_slab_geoopt
 GLOBAL| Run type                                                        GEO_OPT
 GLOBAL| FFT library                                                       FFTW3
 GLOBAL| Diagonalization library                                            ELPA
 GLOBAL| Cholesky decomposition library                                ScaLAPACK
 GLOBAL| DGEMM library                                                      BLAS
 GLOBAL| Minimum number of eigenvectors for ELPA usage                        16
 GLOBAL| Orthonormality check for eigenvectors                          DISABLED
 GLOBAL| Matrix multiplication library                                     COSMA
 GLOBAL| All-to-all communication in single precision                          F
 GLOBAL| FFTs using library dependent lengths                                  F
 GLOBAL| Grid backend                                                       AUTO
 GLOBAL| Global print level                                                  LOW
 GLOBAL| MPI I/O enabled                                                       T
 GLOBAL| Total number of message passing processes                             1
 GLOBAL| Number of distributed systems (nodes)                                 1
 GLOBAL| Number of threads for this process                                   16
 GLOBAL| This output is from process                                           0
 GLOBAL| OpenMP stack size per thread (OMP_STACKSIZE)                        16M
 GLOBAL| CPU model name                           Intel(R) Core(TM) Ultra 7 265K
 GLOBAL| CPUID                                                              1002

 MEMORY| system memory details [Kb]
 MEMORY|                        rank 0           min           max       average
 MEMORY| MemTotal             32486564      32486564      32486564      32486564
 MEMORY| MemFree              18086644      18086644      18086644      18086644
 MEMORY| Buffers                133288        133288        133288        133288
 MEMORY| Cached                2396996       2396996       2396996       2396996
 MEMORY| Slab                   276396        276396        276396        276396
 MEMORY| SReclaimable           154708        154708        154708        154708
 MEMORY| MemLikelyFree        20771636      20771636      20771636      20771636


 GENERATE|  Preliminary Number of Bonds generated:                             0
 GENERATE|  Achieved consistency in connectivity generation.

 *******************************************************************************
 *******************************************************************************
 **                                                                           **
 **     #####                         ##              ##                      **
 **    ##   ##            ##          ##              ##                      **
 **   ##     ##                       ##            ######                    **
 **   ##     ##  ##   ##  ##   #####  ##  ##   ####   ##    #####    #####    **
 **   ##     ##  ##   ##  ##  ##      ## ##   ##      ##   ##   ##  ##   ##   **
 **   ##  ## ##  ##   ##  ##  ##      ####     ###    ##   ######   ######    **
 **    ##  ###   ##   ##  ##  ##      ## ##      ##   ##   ##       ##        **
 **     #######   #####   ##   #####  ##  ##  ####    ##    #####   ##        **
 **           ##                                                    ##        **
 **                                                                           **
 **                                                ... make the atoms dance   **
 **                                                                           **
 **            Copyright (C) by CP2K developers group (2000-2026)             **
 **                      J. Chem. Phys. 152, 194103 (2020)                    **
 **                                                                           **
 *******************************************************************************


 TOTAL NUMBERS AND MAXIMUM NUMBERS

  Total number of            - Atomic kinds:                                   3
                             - Atoms:                                         96
                             - Shell sets:                                    96
                             - Shells:                                       496
                             - Primitive Cartesian functions:                480
                             - Cartesian basis functions:                   1360
                             - Spherical basis functions:                   1264

  Maximum angular momentum of- Orbital basis functions:                        2
                             - Local part of the GTH pseudopotential:          2
                             - Non-local part of the GTH pseudopotential:      3


 SCF PARAMETERS         Density guess:                                    ATOMIC
                        --------------------------------------------------------
                        max_scf:                                             120
                        max_scf_history:                                       0
                        max_diis:                                              4
                        --------------------------------------------------------
                        eps_scf:                                        1.00E-06
                        eps_scf_history:                                0.00E+00
                        eps_diis:                                       0.00E+00
                        eps_eigval:                                     1.00E-05
                        --------------------------------------------------------
                        level_shift [a.u.]:                             0.000000
                        --------------------------------------------------------
                        Outer loop SCF in use 
                        No variables optimised in outer loop
                        eps_scf                                         1.00E-06
                        max_scf                                               20
                        No outer loop optimization
                        step_size                                       5.00E-01

 BFGS| Use rational function optimization for step estimation:                NO
 BFGS| Use model Hessian for initial guess:                                  YES
 BFGS| Restart Hessian:                                                       NO
 BFGS| Trust radius:                                                       0.472

 *******************************************************************************
 ***                     STARTING GEOMETRY OPTIMIZATION                      ***
 ***                                   BFGS                                  ***
 *******************************************************************************

 Extrapolation method: initial_guess

 Spin 1

 Number of electrons:                                                        320
 Number of occupied orbitals:                                                320
 Number of molecular orbitals:                                               320

 Spin 2

 Number of electrons:                                                        320
 Number of occupied orbitals:                                                320
 Number of molecular orbitals:                                               320

 Number of orbital functions:                                               1264
 Number of independent orbital functions:                                   1264


 SCF WAVEFUNCTION OPTIMIZATION

  ----------------------------------- OT ---------------------------------------
  Minimizer      : DIIS                : direct inversion
                                         in the iterative subspace
                                         using   7 DIIS vectors
                                         safer DIIS on
  Preconditioner : FULL_SINGLE_INVERSE : inversion of 
                                         H + eS - 2*(Sc)(c^T*H*c+const)(Sc)^T
  Precond_solver : INVERSE_UPDATE
  stepsize       :    0.10000000                  energy_gap     :    0.10000000
  eps_taylor     :   0.10000E-15                  max_taylor     :             4
  ----------------------------------- OT ---------------------------------------

  Step     Update method      Time    Convergence         Total energy    Change
  ------------------------------------------------------------------------------
     1 OT DIIS     0.10E+00    2.7     0.01576774     -1722.3407137302 -1.72E+03
     2 OT DIIS     0.10E+00    2.7     0.01105168     -1738.6985786583 -1.64E+01
     3 OT DIIS     0.10E+00    2.7     0.00825876     -1751.5362356099 -1.28E+01
     4 OT DIIS     0.10E+00    2.8     0.00600812     -1761.9202950636 -1.04E+01
     5 OT DIIS     0.10E+00    2.7     0.00441925     -1768.4817006589 -6.56E+00
     6 OT DIIS     0.10E+00    2.8     0.00322466     -1772.6983977512 -4.22E+00
     7 OT DIIS     0.10E+00    2.6     0.00242973     -1775.0543321152 -2.36E+00
     8 OT DIIS     0.10E+00    2.8     0.00180642     -1776.5292222860 -1.47E+00
     9 OT DIIS     0.10E+00    2.9     0.00151352     -1777.2506972465 -7.21E-01
    10 OT DIIS     0.10E+00    2.8     0.00121643     -1777.7730304723 -5.22E-01
    11 OT DIIS     0.10E+00    2.7     0.00117182     -1777.9846090412 -2.12E-01
    12 OT DIIS     0.10E+00    3.1     0.00099045     -1778.2600109920 -2.75E-01
    13 OT DIIS     0.10E+00    7.8     0.00072505     -1778.4961674121 -2.36E-01
    14 OT DIIS     0.10E+00    2.6     0.00055456     -1778.6714544305 -1.75E-01
    15 OT DIIS     0.10E+00    2.5     0.00038644     -1778.7615089800 -9.01E-02
    16 OT DIIS     0.10E+00    7.8     0.00041706     -1778.7646993524 -3.19E-03
    17 OT DIIS     0.10E+00    2.7     0.00027587     -1778.8215291103 -5.68E-02
    18 OT DIIS     0.10E+00    5.9     0.00021422     -1778.8450688116 -2.35E-02
    19 OT DIIS     0.10E+00    2.9     0.00014598     -1778.8634964389 -1.84E-02
    20 OT DIIS     0.10E+00    3.0     0.00012167     -1778.8710368476 -7.54E-03
    21 OT DIIS     0.10E+00    3.0     0.00009589     -1778.8762252399 -5.19E-03
    22 OT DIIS     0.10E+00    2.8     0.00007825     -1778.8796946999 -3.47E-03
    23 OT DIIS     0.10E+00    2.7     0.00006255     -1778.8823755771 -2.68E-03
    24 OT DIIS     0.10E+00    2.8     0.00004859     -1778.8840332981 -1.66E-03
    25 OT DIIS     0.10E+00    2.6     0.00004375     -1778.8847126981 -6.79E-04
    26 OT DIIS     0.10E+00    2.7     0.00003827     -1778.8854990969 -7.86E-04
    27 OT DIIS     0.10E+00    4.0     0.00003414     -1778.8860904631 -5.91E-04
    28 OT DIIS     0.10E+00    2.7     0.00003102     -1778.8865264266 -4.36E-04
    29 OT DIIS     0.10E+00    6.7     0.00002705     -1778.8870545173 -5.28E-04
    30 OT DIIS     0.10E+00    2.8     0.00002467     -1778.8873577589 -3.03E-04
    31 OT DIIS     0.10E+00    2.5     0.00002111     -1778.8877728714 -4.15E-04
    32 OT DIIS     0.10E+00    2.7     0.00001930     -1778.8879763317 -2.03E-04
    33 OT DIIS     0.10E+00    2.9     0.00001685     -1778.8882210235 -2.45E-04
    34 OT DIIS     0.10E+00    2.9     0.00001471     -1778.8884367566 -2.16E-04
    35 OT DIIS     0.10E+00    3.0     0.00001371     -1778.8885602827 -1.24E-04
    36 OT DIIS     0.10E+00    2.8     0.00001292     -1778.8886732591 -1.13E-04
    37 OT DIIS     0.10E+00    3.0     0.00001185     -1778.8888315401 -1.58E-04
    38 OT DIIS     0.10E+00    2.8     0.00001063     -1778.8890152557 -1.84E-04
    39 OT DIIS     0.10E+00    3.3     0.00000969     -1778.8891480208 -1.33E-04
    40 OT DIIS     0.10E+00    3.2     0.00000887     -1778.8892352078 -8.72E-05
    41 OT DIIS     0.10E+00    2.5     0.00000821     -1778.8892989368 -6.37E-05
    42 OT DIIS     0.10E+00    7.2     0.00000758     -1778.8893567444 -5.78E-05
    43 OT DIIS     0.10E+00    2.9     0.00000703     -1778.8894063283 -4.96E-05
    44 OT DIIS     0.10E+00    2.9     0.00000645     -1778.8894589716 -5.26E-05
    45 OT DIIS     0.10E+00    2.6     0.00000596     -1778.8895018500 -4.29E-05
    46 OT DIIS     0.10E+00    3.1     0.00000561     -1778.8895357549 -3.39E-05
    47 OT DIIS     0.10E+00    2.9     0.00000534     -1778.8895619513 -2.62E-05
    48 OT DIIS     0.10E+00    3.1     0.00000485     -1778.8896019526 -4.00E-05
    49 OT DIIS     0.10E+00    2.8     0.00000428     -1778.8896399407 -3.80E-05
    50 OT DIIS     0.10E+00    3.1     0.00000399     -1778.8896584688 -1.85E-05
    51 OT DIIS     0.10E+00    2.9     0.00000381     -1778.8896659025 -7.43E-06
    52 OT DIIS     0.10E+00    7.8     0.00000365     -1778.8896716624 -5.76E-06
    53 OT DIIS     0.10E+00    2.3     0.00000349     -1778.8896784311 -6.77E-06
    54 OT DIIS     0.10E+00    2.7     0.00000333     -1778.8896868173 -8.39E-06
    55 OT DIIS     0.10E+00    2.9     0.00000305     -1778.8897049858 -1.82E-05
    56 OT DIIS     0.10E+00    2.7     0.00000281     -1778.8897224970 -1.75E-05
    57 OT DIIS     0.10E+00    2.8     0.00000267     -1778.8897327939 -1.03E-05
    58 OT DIIS     0.10E+00    2.7     0.00000259     -1778.8897387849 -5.99E-06
    59 OT DIIS     0.10E+00    2.8     0.00000253     -1778.8897442010 -5.42E-06
    60 OT DIIS     0.10E+00    2.9     0.00000244     -1778.8897523647 -8.16E-06
    61 OT DIIS     0.10E+00    2.9     0.00000237     -1778.8897585885 -6.22E-06
    62 OT DIIS     0.10E+00    8.1     0.00000230     -1778.8897639409 -5.35E-06
    63 OT DIIS     0.10E+00    3.0     0.00000220     -1778.8897713553 -7.41E-06
    64 OT DIIS     0.10E+00    3.0     0.00000211     -1778.8897785586 -7.20E-06
    65 OT DIIS     0.10E+00    2.9     0.00000199     -1778.8897883537 -9.80E-06
    66 OT DIIS     0.10E+00    3.4     0.00000187     -1778.8897983641 -1.00E-05
    67 OT DIIS     0.10E+00    3.4     0.00000174     -1778.8898091798 -1.08E-05
    68 OT DIIS     0.10E+00    3.0     0.00000164     -1778.8898173085 -8.13E-06
    69 OT DIIS     0.10E+00    5.0     0.00000156     -1778.8898233394 -6.03E-06
    70 OT DIIS     0.10E+00    2.8     0.00000151     -1778.8898275949 -4.26E-06
    71 OT DIIS     0.10E+00    6.1     0.00000148     -1778.8898307351 -3.14E-06
    72 OT DIIS     0.10E+00    2.7     0.00000144     -1778.8898333495 -2.61E-06
    73 OT DIIS     0.10E+00    2.4     0.00000140     -1778.8898366832 -3.33E-06
    74 OT DIIS     0.10E+00    2.8     0.00000136     -1778.8898401696 -3.49E-06
    75 OT DIIS     0.10E+00    3.0     0.00000130     -1778.8898440582 -3.89E-06
    76 OT DIIS     0.10E+00    2.8     0.00000122     -1778.8898482979 -4.24E-06
    77 OT DIIS     0.10E+00    3.1     0.00000114     -1778.8898528636 -4.57E-06
    78 OT DIIS     0.10E+00    2.8     0.00000107     -1778.8898569584 -4.09E-06
    79 OT DIIS     0.10E+00    3.0     0.00000101     -1778.8898604459 -3.49E-06
    80 OT DIIS     0.10E+00    2.8     0.00000096     -1778.8898634829 -3.04E-06

  *** SCF run converged in    80 steps ***


  Electronic density on regular grids:       -639.9999999955        0.0000000045
  Core density on regular grids:              639.9999999997       -0.0000000003
  Total charge density on r-space grids:        0.0000000042
  Total charge density g-space grids:           0.0000000042

  Overlap energy of the core charge distribution:               0.00000856149113
  Self energy of the core charge distribution:              -4281.17917236164612
  Core Hamiltonian energy:                                   1145.61930461447764
  Hartree energy:                                            1704.86277074312898
  Exchange-correlation energy:                               -347.20751038843895
  Dispersion energy:                                           -0.98526465188339

  Total energy:                                             -1778.88986348287085

  outer SCF iter =    1 RMS gradient =   0.96E-06 energy =      -1778.8898634829
  outer SCF loop converged in   1 iterations or   80 steps


  Integrated spin density:                                          0.0000000000
  Integrated absolute spin density:                                 0.0000000001
  Ideal and single determinant S**2 :                    0.000000      -0.000000

 ENERGY| Total FORCE_EVAL ( QS ) energy [hartree]          -1778.889865461413365

 OPT| **************************************************************************
 OPT| Step number                                                              0
 OPT| Optimization method                                                   BFGS
 OPT| Total energy [hartree]                                    -1778.8898654614
 OPT| Used time [s]                                                      282.576
 OPT| **************************************************************************
 OPT| Estimated peak process memory [MiB]                                   5538

 --------------------------
 OPTIMIZATION STEP:      1
 --------------------------

 Extrapolation method: ASPC

 Spin 1

 Number of electrons:                                                        320
 Number of occupied orbitals:                                                320
 Number of molecular orbitals:                                               320

 Spin 2

 Number of electrons:                                                        320
 Number of occupied orbitals:                                                320
 Number of molecular orbitals:                                               320

 Number of orbital functions:                                               1264
 Number of independent orbital functions:                                   1264


 SCF WAVEFUNCTION OPTIMIZATION

  ----------------------------------- OT ---------------------------------------
  Minimizer      : DIIS                : direct inversion
                                         in the iterative subspace
                                         using   7 DIIS vectors
                                         safer DIIS on
  Preconditioner : FULL_SINGLE_INVERSE : inversion of 
                                         H + eS - 2*(Sc)(c^T*H*c+const)(Sc)^T
  Precond_solver : INVERSE_UPDATE
  stepsize       :    0.10000000                  energy_gap     :    0.10000000
  eps_taylor     :   0.10000E-15                  max_taylor     :             4
  ----------------------------------- OT ---------------------------------------

  Step     Update method      Time    Convergence         Total energy    Change
  ------------------------------------------------------------------------------


     Lanczos converged:  T threshold:   0.100E-02
     Est. extremal eigenvalues:    0.215E+02   0.115E+02
     Est. condition number :    0.187E+01
     Hotelling iter   1 1.00000000   0.114E+00       0.106    75857.090



     Lanczos converged:  T threshold:   0.100E-02
     Est. extremal eigenvalues:    0.215E+02   0.115E+02
     Est. condition number :    0.187E+01
     Hotelling iter   1 1.00000000   0.114E+00       0.086    93691.676

     1 OT DIIS     0.10E+00    3.0     0.00015155     -1778.9307929577 -1.78E+03
     2 OT DIIS     0.10E+00    2.6     0.00014865     -1778.9326330780 -1.84E-03
     3 OT DIIS     0.10E+00    2.7     0.00006634     -1778.9776282730 -4.50E-02
     4 OT DIIS     0.10E+00    2.4     0.00003428     -1778.9870896633 -9.46E-03
     5 OT DIIS     0.10E+00    2.8     0.00003290     -1778.9877302094 -6.41E-04
     6 OT DIIS     0.10E+00    2.4     0.00001942     -1778.9905051129 -2.77E-03
     7 OT DIIS     0.10E+00    2.7     0.00001383     -1778.9913541119 -8.49E-04
     8 OT DIIS     0.10E+00    2.5     0.00001091     -1778.9917576130 -4.04E-04
     9 OT DIIS     0.10E+00    2.3     0.00000633     -1778.9921555079 -3.98E-04
    10 OT DIIS     0.10E+00    2.7     0.00000619     -1778.9921673545 -1.18E-05
    11 OT DIIS     0.10E+00    3.1     0.00000367     -1778.9922867972 -1.19E-04
    12 OT DIIS     0.10E+00    2.8     0.00000362     -1778.9922888858 -2.09E-06
    13 OT DIIS     0.10E+00    3.0     0.00000225     -1778.9923364382 -4.76E-05
    14 OT DIIS     0.10E+00    2.9     0.00000222     -1778.9923374117 -9.74E-07
    15 OT DIIS     0.10E+00    2.9     0.00000158     -1778.9923524388 -1.50E-05
    16 OT DIIS     0.10E+00    2.7     0.00000156     -1778.9923528762 -4.37E-07
    17 OT DIIS     0.10E+00    2.6     0.00000109     -1778.9923614266 -8.55E-06
    18 OT DIIS     0.10E+00    2.8     0.00000107     -1778.9923616451 -2.19E-07
    19 OT DIIS     0.10E+00    2.4     0.00000066     -1778.9923661867 -4.54E-06

  *** SCF run converged in    19 steps ***


  Electronic density on regular grids:       -639.9999999854        0.0000000146
  Core density on regular grids:              639.9999999997       -0.0000000003
  Total charge density on r-space grids:        0.0000000143
  Total charge density g-space grids:           0.0000000143

  Overlap energy of the core charge distribution:               0.00000576669366
  Self energy of the core charge distribution:              -4281.17917236164612
  Core Hamiltonian energy:                                   1143.60508523631461
  Hartree energy:                                            1706.26072906366062
  Exchange-correlation energy:                               -346.69442223397385
  Dispersion energy:                                           -0.98459165770815

  Total energy:                                             -1778.99236618665896

  outer SCF iter =    1 RMS gradient =   0.66E-06 energy =      -1778.9923661867
  outer SCF loop converged in   1 iterations or   19 steps


  Integrated spin density:                                         -0.0000000000
  Integrated absolute spin density:                                 0.0000000044
  Ideal and single determinant S**2 :                    0.000000      -0.000000

 ENERGY| Total FORCE_EVAL ( QS ) energy [hartree]          -1778.992366222871397

 OPT| **************************************************************************
 OPT| Step number                                                              1
 OPT| Optimization method                                                   BFGS
 OPT| Total energy [hartree]                                    -1778.9923662229
 OPT| Effective energy change [hartree]                            -0.1025007615
 OPT| Predicted energy change [hartree]                            -0.0814957945
 OPT| Scaling factor                                                0.0000000000
 OPT| Step size                                                     0.0900935027
 OPT| Trust radius                                                  0.4724315332
 OPT| Decrease in energy                                                     YES
 OPT| Used time [s]                                                       60.304
 OPT|
 OPT| Maximum step size                                             0.0900935027
 OPT| Convergence limit for maximum step size                       0.0030000000
 OPT| Maximum step size is converged                                          NO
 OPT|
 OPT| RMS step size                                                 0.0422615251
 OPT| Convergence limit for RMS step size                           0.0015000000
 OPT| RMS step size is converged                                              NO
 OPT|
 OPT| Maximum gradient                                              0.0269364978
 OPT| Convergence limit for maximum gradient                        0.0004500000
 OPT| Maximum gradient is converged                                           NO
 OPT|
 OPT| RMS gradient                                                  0.0128251365
 OPT| Convergence limit for RMS gradient                            0.0003000000
 OPT| RMS gradient is converged                                               NO
 OPT| **************************************************************************
 OPT| Estimated peak process memory after this step [MiB]                   5627

 --------------------------
 OPTIMIZATION STEP:      2
 --------------------------

 Extrapolation method: ASPC

 Spin 1

 Number of electrons:                                                        320
 Number of occupied orbitals:                                                320
 Number of molecular orbitals:                                               320

 Spin 2

 Number of electrons:                                                        320
 Number of occupied orbitals:                                                320
 Number of molecular orbitals:                                               320

 Number of orbital functions:                                               1264
 Number of independent orbital functions:                                   1264


 SCF WAVEFUNCTION OPTIMIZATION

  ----------------------------------- OT ---------------------------------------
  Minimizer      : DIIS                : direct inversion
                                         in the iterative subspace
                                         using   7 DIIS vectors
                                         safer DIIS on
  Preconditioner : FULL_SINGLE_INVERSE : inversion of 
                                         H + eS - 2*(Sc)(c^T*H*c+const)(Sc)^T
  Precond_solver : INVERSE_UPDATE
  stepsize       :    0.10000000                  energy_gap     :    0.10000000
  eps_taylor     :   0.10000E-15                  max_taylor     :             4
  ----------------------------------- OT ---------------------------------------

  Step     Update method      Time    Convergence         Total energy    Change
  ------------------------------------------------------------------------------


     Lanczos converged:  T threshold:   0.100E-02
     Est. extremal eigenvalues:    0.944E+00   0.175E-01
     Est. condition number :    0.539E+02
     Hotelling iter   1 1.00000000   0.932E+00       1.714     4713.490
     Hotelling iter   2 1.00000000   0.761E+00       0.520    15530.528
     Hotelling iter   3 1.00000000   0.378E+00       0.724    11154.614



     Lanczos converged:  T threshold:   0.100E-02
     Est. extremal eigenvalues:    0.944E+00   0.175E-01
     Est. condition number :    0.539E+02
     Hotelling iter   1 1.00000000   0.932E+00       0.106    75952.554
     Hotelling iter   2 1.00000000   0.761E+00       0.031   258422.956
     Hotelling iter   3 1.00000000   0.378E+00       0.032   249785.649

     1 OT DIIS     0.10E+00    8.2     0.00051800     -1778.9744819817 -1.78E+03
     2 OT DIIS     0.10E+00    2.8     0.00038999     -1778.9933026384 -1.88E-02
     3 OT DIIS     0.10E+00    2.5     0.00018347     -1779.0169132061 -2.36E-02
     4 OT DIIS     0.10E+00    2.7     0.00007025     -1779.0232657762 -6.35E-03
     5 OT DIIS     0.10E+00    2.2     0.00003211     -1779.0240337072 -7.68E-04
     6 OT DIIS     0.10E+00    2.7     0.00001666     -1779.0242020450 -1.68E-04
     7 OT DIIS     0.10E+00    2.2     0.00000798     -1779.0242549841 -5.29E-05
     8 OT DIIS     0.10E+00    2.7     0.00000446     -1779.0242672036 -1.22E-05
     9 OT DIIS     0.10E+00    2.9     0.00000213     -1779.0242713185 -4.11E-06
    10 OT DIIS     0.10E+00    2.6     0.00000133     -1779.0242721553 -8.37E-07
    11 OT DIIS     0.10E+00    2.2     0.00000065     -1779.0242725618 -4.07E-07

  *** SCF run converged in    11 steps ***


  Electronic density on regular grids:       -639.9999999903        0.0000000097
  Core density on regular grids:              639.9999999997       -0.0000000003
  Total charge density on r-space grids:        0.0000000094
  Total charge density g-space grids:           0.0000000094

  Overlap energy of the core charge distribution:               0.00000415696375
  Self energy of the core charge distribution:              -4281.17917236164612
  Core Hamiltonian energy:                                   1141.89158096859774
  Hartree energy:                                            1707.49774297505724
  Exchange-correlation energy:                               -346.24838791800710
  Dispersion energy:                                           -0.98604038277951

  Total energy:                                             -1779.02427256181386

  outer SCF iter =    1 RMS gradient =   0.65E-06 energy =      -1779.0242725618
  outer SCF loop converged in   1 iterations or   11 steps


  Integrated spin density:                                         -0.0000000000
  Integrated absolute spin density:                                 0.0000000009
  Ideal and single determinant S**2 :                    0.000000       0.000000

 ENERGY| Total FORCE_EVAL ( QS ) energy [hartree]          -1779.024272643443737

 OPT| **************************************************************************
 OPT| Step number                                                              2
 OPT| Optimization method                                                   BFGS
 OPT| Total energy [hartree]                                    -1779.0242726434
 OPT| Effective energy change [hartree]                            -0.0319064206
 OPT| Predicted energy change [hartree]                            -0.0276857116
 OPT| Scaling factor                                                0.0000000000
 OPT| Step size                                                     0.0550854267
 OPT| Trust radius                                                  0.4724315332
 OPT| Decrease in energy                                                     YES
 OPT| Used time [s]                                                       41.279
 OPT|
 OPT| Maximum step size                                             0.0550854267
 OPT| Convergence limit for maximum step size                       0.0030000000
 OPT| Maximum step size is converged                                          NO
 OPT|
 OPT| RMS step size                                                 0.0261679794
 OPT| Convergence limit for RMS step size                           0.0015000000
 OPT| RMS step size is converged                                              NO
 OPT|
 OPT| Maximum gradient                                              0.0092929509
 OPT| Convergence limit for maximum gradient                        0.0004500000
 OPT| Maximum gradient is converged                                           NO
 OPT|
 OPT| RMS gradient                                                  0.0044281254
 OPT| Convergence limit for RMS gradient                            0.0003000000
 OPT| RMS gradient is converged                                               NO
 OPT| **************************************************************************
 OPT| Estimated peak process memory after this step [MiB]                   5784

 --------------------------
 OPTIMIZATION STEP:      3
 --------------------------

 Extrapolation method: ASPC

 Spin 1

 Number of electrons:                                                        320
 Number of occupied orbitals:                                                320
 Number of molecular orbitals:                                               320

 Spin 2

 Number of electrons:                                                        320
 Number of occupied orbitals:                                                320
 Number of molecular orbitals:                                               320

 Number of orbital functions:                                               1264
 Number of independent orbital functions:                                   1264


 SCF WAVEFUNCTION OPTIMIZATION

  ----------------------------------- OT ---------------------------------------
  Minimizer      : DIIS                : direct inversion
                                         in the iterative subspace
                                         using   7 DIIS vectors
                                         safer DIIS on
  Preconditioner : FULL_SINGLE_INVERSE : inversion of 
                                         H + eS - 2*(Sc)(c^T*H*c+const)(Sc)^T
  Precond_solver : INVERSE_UPDATE
  stepsize       :    0.10000000                  energy_gap     :    0.10000000
  eps_taylor     :   0.10000E-15                  max_taylor     :             4
  ----------------------------------- OT ---------------------------------------

  Step     Update method      Time    Convergence         Total energy    Change
  ------------------------------------------------------------------------------


     Lanczos converged:  T threshold:   0.100E-02
     Est. extremal eigenvalues:    0.107E+01   0.541E+00
     Est. condition number :    0.198E+01
     Hotelling iter   1 1.00000000   0.132E+00       0.092    87866.517



     Lanczos converged:  T threshold:   0.100E-02
     Est. extremal eigenvalues:    0.107E+01   0.541E+00
     Est. condition number :    0.198E+01
     Hotelling iter   1 1.00000000   0.132E+00       0.114    71060.733

     1 OT DIIS     0.10E+00    1.8     0.00044483     -1778.9963723827 -1.78E+03
     2 OT DIIS     0.10E+00    2.8     0.00032850     -1779.0101253962 -1.38E-02
     3 OT DIIS     0.10E+00    2.9     0.00014439     -1779.0259797408 -1.59E-02
     4 OT DIIS     0.10E+00    2.8     0.00005557     -1779.0295609911 -3.58E-03
     5 OT DIIS     0.10E+00    3.0     0.00002198     -1779.0300049844 -4.44E-04
     6 OT DIIS     0.10E+00    2.7     0.00001083     -1779.0300718455 -6.69E-05
     7 OT DIIS     0.10E+00    2.7     0.00000387     -1779.0300906811 -1.88E-05
     8 OT DIIS     0.10E+00    2.7     0.00000190     -1779.0300928238 -2.14E-06
     9 OT DIIS     0.10E+00    2.6     0.00000097     -1779.0300933907 -5.67E-07

  *** SCF run converged in     9 steps ***


  Electronic density on regular grids:       -639.9999999922        0.0000000078
  Core density on regular grids:              639.9999999997       -0.0000000003
  Total charge density on r-space grids:        0.0000000075
  Total charge density g-space grids:           0.0000000075

  Overlap energy of the core charge distribution:               0.00000377885528
  Self energy of the core charge distribution:              -4281.17917236164612
  Core Hamiltonian energy:                                   1141.09448790409419
  Hartree energy:                                            1708.08347844392279
  Exchange-correlation energy:                               -346.04492069101053
  Dispersion energy:                                           -0.98397046492145

  Total energy:                                             -1779.03009339070582

  outer SCF iter =    1 RMS gradient =   0.97E-06 energy =      -1779.0300933907
  outer SCF loop converged in   1 iterations or    9 steps


  Integrated spin density:                                         -0.0000000000
  Integrated absolute spin density:                                 0.0000000002
  Ideal and single determinant S**2 :                    0.000000      -0.000000

 ENERGY| Total FORCE_EVAL ( QS ) energy [hartree]          -1779.030093553376901

 OPT| **************************************************************************
 OPT| Step number                                                              3
 OPT| Optimization method                                                   BFGS
 OPT| Total energy [hartree]                                    -1779.0300935534
 OPT| Effective energy change [hartree]                            -0.0058209099
 OPT| Predicted energy change [hartree]                            -0.0041632843
 OPT| Scaling factor                                                0.0000000000
 OPT| Step size                                                     0.0206893080
 OPT| Trust radius                                                  0.4724315332
 OPT| Decrease in energy                                                     YES
 OPT| Used time [s]                                                       32.675
 OPT|
 OPT| Maximum step size                                             0.0206893080
 OPT| Convergence limit for maximum step size                       0.0030000000
 OPT| Maximum step size is converged                                          NO
 OPT|
 OPT| RMS step size                                                 0.0114161847
 OPT| Convergence limit for RMS step size                           0.0015000000
 OPT| RMS step size is converged                                              NO
 OPT|
 OPT| Maximum gradient                                              0.0043394846
 OPT| Convergence limit for maximum gradient                        0.0004500000
 OPT| Maximum gradient is converged                                           NO
 OPT|
 OPT| RMS gradient                                                  0.0018000797
 OPT| Convergence limit for RMS gradient                            0.0003000000
 OPT| RMS gradient is converged                                               NO
 OPT| **************************************************************************
 OPT| Estimated peak process memory after this step [MiB]                   5784

 --------------------------
 OPTIMIZATION STEP:      4
 --------------------------

 Extrapolation method: ASPC

 Spin 1

 Number of electrons:                                                        320
 Number of occupied orbitals:                                                320
 Number of molecular orbitals:                                               320

 Spin 2

 Number of electrons:                                                        320
 Number of occupied orbitals:                                                320
 Number of molecular orbitals:                                               320

 Number of orbital functions:                                               1264
 Number of independent orbital functions:                                   1264


 SCF WAVEFUNCTION OPTIMIZATION

  ----------------------------------- OT ---------------------------------------
  Minimizer      : DIIS                : direct inversion
                                         in the iterative subspace
                                         using   7 DIIS vectors
                                         safer DIIS on
  Preconditioner : FULL_SINGLE_INVERSE : inversion of 
                                         H + eS - 2*(Sc)(c^T*H*c+const)(Sc)^T
  Precond_solver : INVERSE_UPDATE
  stepsize       :    0.10000000                  energy_gap     :    0.10000000
  eps_taylor     :   0.10000E-15                  max_taylor     :             4
  ----------------------------------- OT ---------------------------------------

  Step     Update method      Time    Convergence         Total energy    Change
  ------------------------------------------------------------------------------


     Lanczos converged:  T threshold:   0.100E-02
     Est. extremal eigenvalues:    0.112E+01   0.841E+00
     Est. condition number :    0.133E+01
     Hotelling iter   1 1.00000000   0.343E-01       0.059   136552.946



     Lanczos converged:  T threshold:   0.100E-02
     Est. extremal eigenvalues:    0.112E+01   0.841E+00
     Est. condition number :    0.133E+01
     Hotelling iter   1 1.00000000   0.343E-01       1.385     5833.998

     1 OT DIIS     0.10E+00    6.5     0.00027693     -1779.0194639069 -1.78E+03
     2 OT DIIS     0.10E+00    2.2     0.00020324     -1779.0247670395 -5.30E-03
     3 OT DIIS     0.10E+00    2.9     0.00009493     -1779.0305956959 -5.83E-03
     4 OT DIIS     0.10E+00    3.2     0.00003632     -1779.0321453070 -1.55E-03
     5 OT DIIS     0.10E+00    2.7     0.00001336     -1779.0323371237 -1.92E-04
     6 OT DIIS     0.10E+00    2.7     0.00000654     -1779.0323610897 -2.40E-05
     7 OT DIIS     0.10E+00    2.7     0.00000245     -1779.0323676901 -6.60E-06
     8 OT DIIS     0.10E+00    2.4     0.00000127     -1779.0323685144 -8.24E-07
     9 OT DIIS     0.10E+00    2.8     0.00000060     -1779.0323687664 -2.52E-07

  *** SCF run converged in     9 steps ***


  Electronic density on regular grids:       -639.9999999952        0.0000000048
  Core density on regular grids:              639.9999999997       -0.0000000003
  Total charge density on r-space grids:        0.0000000045
  Total charge density g-space grids:           0.0000000045

  Overlap energy of the core charge distribution:               0.00000365614907
  Self energy of the core charge distribution:              -4281.17917236164612
  Core Hamiltonian energy:                                   1140.61707351887685
  Hartree energy:                                            1708.43639120231092
  Exchange-correlation energy:                               -345.92550069990358
  Dispersion energy:                                           -0.98116408217732

  Total energy:                                             -1779.03236876639039

  outer SCF iter =    1 RMS gradient =   0.60E-06 energy =      -1779.0323687664
  outer SCF loop converged in   1 iterations or    9 steps


  Integrated spin density:                                         -0.0000000000
  Integrated absolute spin density:                                 0.0000000001
  Ideal and single determinant S**2 :                    0.000000      -0.000000

 ENERGY| Total FORCE_EVAL ( QS ) energy [hartree]          -1779.032368825252206

 OPT| **************************************************************************
 OPT| Step number                                                              4
 OPT| Optimization method                                                   BFGS
 OPT| Total energy [hartree]                                    -1779.0323688253
 OPT| Effective energy change [hartree]                            -0.0022752719
 OPT| Predicted energy change [hartree]                            -0.0018018725
 OPT| Scaling factor                                                0.0000000000
 OPT| Step size                                                     0.0249091761
 OPT| Trust radius                                                  0.4724315332
 OPT| Decrease in energy                                                     YES
 OPT| Used time [s]                                                       38.117
 OPT|
 OPT| Maximum step size                                             0.0249091761
 OPT| Convergence limit for maximum step size                       0.0030000000
 OPT| Maximum step size is converged                                          NO
 OPT|
 OPT| RMS step size                                                 0.0133183772
 OPT| Convergence limit for RMS step size                           0.0015000000
 OPT| RMS step size is converged                                              NO
 OPT|
 OPT| Maximum gradient                                              0.0023340549
 OPT| Convergence limit for maximum gradient                        0.0004500000
 OPT| Maximum gradient is converged                                           NO
 OPT|
 OPT| RMS gradient                                                  0.0009919597
 OPT| Convergence limit for RMS gradient                            0.0003000000
 OPT| RMS gradient is converged                                               NO
 OPT| **************************************************************************
 OPT| Estimated peak process memory after this step [MiB]                   5784

 --------------------------
 OPTIMIZATION STEP:      5
 --------------------------

 Extrapolation method: ASPC

 Spin 1

 Number of electrons:                                                        320
 Number of occupied orbitals:                                                320
 Number of molecular orbitals:                                               320

 Spin 2

 Number of electrons:                                                        320
 Number of occupied orbitals:                                                320
 Number of molecular orbitals:                                               320

 Number of orbital functions:                                               1264
 Number of independent orbital functions:                                   1264


 SCF WAVEFUNCTION OPTIMIZATION

  ----------------------------------- OT ---------------------------------------
  Minimizer      : DIIS                : direct inversion
                                         in the iterative subspace
                                         using   7 DIIS vectors
                                         safer DIIS on
  Preconditioner : FULL_SINGLE_INVERSE : inversion of 
                                         H + eS - 2*(Sc)(c^T*H*c+const)(Sc)^T
  Precond_solver : INVERSE_UPDATE
  stepsize       :    0.10000000                  energy_gap     :    0.10000000
  eps_taylor     :   0.10000E-15                  max_taylor     :             4
  ----------------------------------- OT ---------------------------------------

  Step     Update method      Time    Convergence         Total energy    Change
  ------------------------------------------------------------------------------


     Lanczos converged:  T threshold:   0.100E-02
     Est. extremal eigenvalues:    0.107E+01   0.926E+00
     Est. condition number :    0.115E+01
     Hotelling iter   1 1.00000000   0.140E-01       0.105    77122.485



     Lanczos converged:  T threshold:   0.100E-02
     Est. extremal eigenvalues:    0.107E+01   0.926E+00
     Est. condition number :    0.115E+01
     Hotelling iter   1 1.00000000   0.140E-01       0.061   133408.075

     1 OT DIIS     0.10E+00    1.9     0.00013075     -1779.0303967135 -1.78E+03
     2 OT DIIS     0.10E+00    2.8     0.00009496     -1779.0315745814 -1.18E-03
     3 OT DIIS     0.10E+00    2.7     0.00004274     -1779.0328388682 -1.26E-03
     4 OT DIIS     0.10E+00    2.2     0.00001735     -1779.0331426864 -3.04E-04
     5 OT DIIS     0.10E+00    2.6     0.00000699     -1779.0331866714 -4.40E-05
     6 OT DIIS     0.10E+00    2.3     0.00000329     -1779.0331935917 -6.92E-06
     7 OT DIIS     0.10E+00    2.5     0.00000128     -1779.0331952518 -1.66E-06
     8 OT DIIS     0.10E+00    2.4     0.00000069     -1779.0331954801 -2.28E-07

  *** SCF run converged in     8 steps ***


  Electronic density on regular grids:       -639.9999999990        0.0000000010
  Core density on regular grids:              639.9999999997       -0.0000000003
  Total charge density on r-space grids:        0.0000000007
  Total charge density g-space grids:           0.0000000007

  Overlap energy of the core charge distribution:               0.00000368321579
  Self energy of the core charge distribution:              -4281.17917236164612
  Core Hamiltonian energy:                                   1140.51258401653922
  Hartree energy:                                            1708.51317445105110
  Exchange-correlation energy:                               -345.90072933287274
  Dispersion energy:                                           -0.97905593642688

  Total energy:                                             -1779.03319548013928

  outer SCF iter =    1 RMS gradient =   0.69E-06 energy =      -1779.0331954801
  outer SCF loop converged in   1 iterations or    8 steps


  Integrated spin density:                                         -0.0000000000
  Integrated absolute spin density:                                 0.0000000001
  Ideal and single determinant S**2 :                    0.000000       0.000000

 ENERGY| Total FORCE_EVAL ( QS ) energy [hartree]          -1779.033195559045453

 OPT| **************************************************************************
 OPT| Step number                                                              5
 OPT| Optimization method                                                   BFGS
 OPT| Total energy [hartree]                                    -1779.0331955590
 OPT| Effective energy change [hartree]                            -0.0008267338
 OPT| Predicted energy change [hartree]                            -0.0005491376
 OPT| Scaling factor                                                0.0000000000
 OPT| Step size                                                     0.0190791129
 OPT| Trust radius                                                  0.4724315332
 OPT| Decrease in energy                                                     YES
 OPT| Used time [s]                                                       29.241
 OPT|
 OPT| Maximum step size                                             0.0190791129
 OPT| Convergence limit for maximum step size                       0.0030000000
 OPT| Maximum step size is converged                                          NO
 OPT|
 OPT| RMS step size                                                 0.0091828912
 OPT| Convergence limit for RMS step size                           0.0015000000
 OPT| RMS step size is converged                                              NO
 OPT|
 OPT| Maximum gradient                                              0.0019648432
 OPT| Convergence limit for maximum gradient                        0.0004500000
 OPT| Maximum gradient is converged                                           NO
 OPT|
 OPT| RMS gradient                                                  0.0008188633
 OPT| Convergence limit for RMS gradient                            0.0003000000
 OPT| RMS gradient is converged                                               NO
 OPT| **************************************************************************
 OPT| Estimated peak process memory after this step [MiB]                   5817

 --------------------------
 OPTIMIZATION STEP:      6
 --------------------------

 Extrapolation method: ASPC

 Spin 1

 Number of electrons:                                                        320
 Number of occupied orbitals:                                                320
 Number of molecular orbitals:                                               320

 Spin 2

 Number of electrons:                                                        320
 Number of occupied orbitals:                                                320
 Number of molecular orbitals:                                               320

 Number of orbital functions:                                               1264
 Number of independent orbital functions:                                   1264


 SCF WAVEFUNCTION OPTIMIZATION

  ----------------------------------- OT ---------------------------------------
  Minimizer      : DIIS                : direct inversion
                                         in the iterative subspace
                                         using   7 DIIS vectors
                                         safer DIIS on
  Preconditioner : FULL_SINGLE_INVERSE : inversion of 
                                         H + eS - 2*(Sc)(c^T*H*c+const)(Sc)^T
  Precond_solver : INVERSE_UPDATE
  stepsize       :    0.10000000                  energy_gap     :    0.10000000
  eps_taylor     :   0.10000E-15                  max_taylor     :             4
  ----------------------------------- OT ---------------------------------------

  Step     Update method      Time    Convergence         Total energy    Change
  ------------------------------------------------------------------------------


     Lanczos converged:  T threshold:   0.100E-02
     Est. extremal eigenvalues:    0.107E+01   0.930E+00
     Est. condition number :    0.115E+01
     Hotelling iter   1 1.00000000   0.139E-01       0.074   109051.258



     Lanczos converged:  T threshold:   0.100E-02
     Est. extremal eigenvalues:    0.107E+01   0.930E+00
     Est. condition number :    0.115E+01
     Hotelling iter   1 1.00000000   0.139E-01       0.058   139513.944

     1 OT DIIS     0.10E+00    2.4     0.00007163     -1779.0330846771 -1.78E+03
     2 OT DIIS     0.10E+00    2.9     0.00005048     -1779.0334313776 -3.47E-04
     3 OT DIIS     0.10E+00    3.0     0.00002572     -1779.0337536498 -3.22E-04
     4 OT DIIS     0.10E+00    2.7     0.00001053     -1779.0338630094 -1.09E-04
     5 OT DIIS     0.10E+00    2.8     0.00000412     -1779.0338800520 -1.70E-05
     6 OT DIIS     0.10E+00    2.6     0.00000201     -1779.0338825089 -2.46E-06
     7 OT DIIS     0.10E+00    2.4     0.00000081     -1779.0338831492 -6.40E-07

  *** SCF run converged in     7 steps ***


  Electronic density on regular grids:       -640.0000000037       -0.0000000037
  Core density on regular grids:              639.9999999997       -0.0000000003
  Total charge density on r-space grids:       -0.0000000039
  Total charge density g-space grids:          -0.0000000039

  Overlap energy of the core charge distribution:               0.00000377211852
  Self energy of the core charge distribution:              -4281.17917236164612
  Core Hamiltonian energy:                                   1140.51639201654825
  Hartree energy:                                            1708.50902204139879
  Exchange-correlation energy:                               -345.90396548409950
  Dispersion energy:                                           -0.97616313353022

  Total energy:                                             -1779.03388314921040

  outer SCF iter =    1 RMS gradient =   0.81E-06 energy =      -1779.0338831492
  outer SCF loop converged in   1 iterations or    7 steps


  Integrated spin density:                                          0.0000000000
  Integrated absolute spin density:                                 0.0000000000
  Ideal and single determinant S**2 :                    0.000000       0.000000

 ENERGY| Total FORCE_EVAL ( QS ) energy [hartree]          -1779.033883244207573

 OPT| **************************************************************************
 OPT| Step number                                                              6
 OPT| Optimization method                                                   BFGS
 OPT| Total energy [hartree]                                    -1779.0338832442
 OPT| Effective energy change [hartree]                            -0.0006876852
 OPT| Predicted energy change [hartree]                            -0.0005472847
 OPT| Scaling factor                                                0.0000000000
 OPT| Step size                                                     0.0259374522
 OPT| Trust radius                                                  0.4724315332
 OPT| Decrease in energy                                                     YES
 OPT| Used time [s]                                                       27.422
 OPT|
 OPT| Maximum step size                                             0.0259374522
 OPT| Convergence limit for maximum step size                       0.0030000000
 OPT| Maximum step size is converged                                          NO
 OPT|
 OPT| RMS step size                                                 0.0122922879
 OPT| Convergence limit for RMS step size                           0.0015000000
 OPT| RMS step size is converged                                              NO
 OPT|
 OPT| Maximum gradient                                              0.0017493201
 OPT| Convergence limit for maximum gradient                        0.0004500000
 OPT| Maximum gradient is converged                                           NO
 OPT|
 OPT| RMS gradient                                                  0.0006467034
 OPT| Convergence limit for RMS gradient                            0.0003000000
 OPT| RMS gradient is converged                                               NO
 OPT| **************************************************************************
 OPT| Estimated peak process memory after this step [MiB]                   5842

 --------------------------
 OPTIMIZATION STEP:      7
 --------------------------

 Extrapolation method: ASPC

 Spin 1

 Number of electrons:                                                        320
 Number of occupied orbitals:                                                320
 Number of molecular orbitals:                                               320

 Spin 2

 Number of electrons:                                                        320
 Number of occupied orbitals:                                                320
 Number of molecular orbitals:                                               320

 Number of orbital functions:                                               1264
 Number of independent orbital functions:                                   1264


 SCF WAVEFUNCTION OPTIMIZATION

  ----------------------------------- OT ---------------------------------------
  Minimizer      : DIIS                : direct inversion
                                         in the iterative subspace
                                         using   7 DIIS vectors
                                         safer DIIS on
  Preconditioner : FULL_SINGLE_INVERSE : inversion of 
                                         H + eS - 2*(Sc)(c^T*H*c+const)(Sc)^T
  Precond_solver : INVERSE_UPDATE
  stepsize       :    0.10000000                  energy_gap     :    0.10000000
  eps_taylor     :   0.10000E-15                  max_taylor     :             4
  ----------------------------------- OT ---------------------------------------

  Step     Update method      Time    Convergence         Total energy    Change
  ------------------------------------------------------------------------------


     Lanczos converged:  T threshold:   0.100E-02
     Est. extremal eigenvalues:    0.103E+01   0.965E+00
     Est. condition number :    0.107E+01
     Hotelling iter   1 1.00000000   0.659E-02       0.110    73613.979



     Lanczos converged:  T threshold:   0.100E-02
     Est. extremal eigenvalues:    0.103E+01   0.965E+00
     Est. condition number :    0.107E+01
     Hotelling iter   1 1.00000000   0.659E-02       0.058   139188.408

     1 OT DIIS     0.10E+00    2.5     0.00008731     -1779.0329615866 -1.78E+03
     2 OT DIIS     0.10E+00    2.4     0.00005934     -1779.0334636711 -5.02E-04
     3 OT DIIS     0.10E+00    2.8     0.00003382     -1779.0338620181 -3.98E-04
     4 OT DIIS     0.10E+00    2.6     0.00001399     -1779.0340502711 -1.88E-04
     5 OT DIIS     0.10E+00    2.3     0.00000504     -1779.0340822461 -3.20E-05
     6 OT DIIS     0.10E+00    2.2     0.00000265     -1779.0340858448 -3.60E-06
     7 OT DIIS     0.10E+00    6.9     0.00000112     -1779.0340870003 -1.16E-06
     8 OT DIIS     0.10E+00    2.3     0.00000061     -1779.0340871917 -1.91E-07

  *** SCF run converged in     8 steps ***


  Electronic density on regular grids:       -640.0000000040       -0.0000000040
  Core density on regular grids:              639.9999999997       -0.0000000003
  Total charge density on r-space grids:       -0.0000000042
  Total charge density g-space grids:          -0.0000000042

  Overlap energy of the core charge distribution:               0.00000381575918
  Self energy of the core charge distribution:              -4281.17917236164612
  Core Hamiltonian energy:                                   1140.58002350752213
  Hartree energy:                                            1708.46055722136362
  Exchange-correlation energy:                               -345.92047156118969
  Dispersion energy:                                           -0.97502781353263

  Total energy:                                             -1779.03408719172330

  outer SCF iter =    1 RMS gradient =   0.61E-06 energy =      -1779.0340871917
  outer SCF loop converged in   1 iterations or    8 steps


  Integrated spin density:                                          0.0000000000
  Integrated absolute spin density:                                 0.0000000000
  Ideal and single determinant S**2 :                    0.000000       0.000000

 ENERGY| Total FORCE_EVAL ( QS ) energy [hartree]          -1779.034087256165549

 OPT| **************************************************************************
 OPT| Step number                                                              7
 OPT| Optimization method                                                   BFGS
 OPT| Total energy [hartree]                                    -1779.0340872562
 OPT| Effective energy change [hartree]                            -0.0002040120
 OPT| Predicted energy change [hartree]                            -0.0001484220
 OPT| Scaling factor                                                0.0000000000
 OPT| Step size                                                     0.0103150449
 OPT| Trust radius                                                  0.4724315332
 OPT| Decrease in energy                                                     YES
 OPT| Used time [s]                                                       32.720
 OPT|
 OPT| Maximum step size                                             0.0103150449
 OPT| Convergence limit for maximum step size                       0.0030000000
 OPT| Maximum step size is converged                                          NO
 OPT|
 OPT| RMS step size                                                 0.0050247692
 OPT| Convergence limit for RMS step size                           0.0015000000
 OPT| RMS step size is converged                                              NO
 OPT|
 OPT| Maximum gradient                                              0.0016179489
 OPT| Convergence limit for maximum gradient                        0.0004500000
 OPT| Maximum gradient is converged                                           NO
 OPT|
 OPT| RMS gradient                                                  0.0005271772
 OPT| Convergence limit for RMS gradient                            0.0003000000
 OPT| RMS gradient is converged                                               NO
 OPT| **************************************************************************
 OPT| Estimated peak process memory after this step [MiB]                   5916

 --------------------------
 OPTIMIZATION STEP:      8
 --------------------------

 Extrapolation method: ASPC

 Spin 1

 Number of electrons:                                                        320
 Number of occupied orbitals:                                                320
 Number of molecular orbitals:                                               320

 Spin 2

 Number of electrons:                                                        320
 Number of occupied orbitals:                                                320
 Number of molecular orbitals:                                               320

 Number of orbital functions:                                               1264
 Number of independent orbital functions:                                   1264


 SCF WAVEFUNCTION OPTIMIZATION

  ----------------------------------- OT ---------------------------------------
  Minimizer      : DIIS                : direct inversion
                                         in the iterative subspace
                                         using   7 DIIS vectors
                                         safer DIIS on
  Preconditioner : FULL_SINGLE_INVERSE : inversion of 
                                         H + eS - 2*(Sc)(c^T*H*c+const)(Sc)^T
  Precond_solver : INVERSE_UPDATE
  stepsize       :    0.10000000                  energy_gap     :    0.10000000
  eps_taylor     :   0.10000E-15                  max_taylor     :             4
  ----------------------------------- OT ---------------------------------------

  Step     Update method      Time    Convergence         Total energy    Change
  ------------------------------------------------------------------------------


     Lanczos converged:  T threshold:   0.100E-02
     Est. extremal eigenvalues:    0.103E+01   0.963E+00
     Est. condition number :    0.107E+01
     Hotelling iter   1 1.00000000   0.670E-02       0.060   134589.239



     Lanczos converged:  T threshold:   0.100E-02
     Est. extremal eigenvalues:    0.103E+01   0.963E+00
     Est. condition number :    0.107E+01
     Hotelling iter   1 1.00000000   0.670E-02       0.059   137806.601

     1 OT DIIS     0.10E+00    2.1     0.00006272     -1779.0335941589 -1.78E+03
     2 OT DIIS     0.10E+00    2.6     0.00004291     -1779.0338546274 -2.60E-04
     3 OT DIIS     0.10E+00    2.8     0.00002394     -1779.0340675744 -2.13E-04
     4 OT DIIS     0.10E+00    2.7     0.00000996     -1779.0341615612 -9.40E-05
     5 OT DIIS     0.10E+00    2.6     0.00000344     -1779.0341776835 -1.61E-05
     6 OT DIIS     0.10E+00    2.5     0.00000180     -1779.0341793256 -1.64E-06
     7 OT DIIS     0.10E+00    2.6     0.00000077     -1779.0341798556 -5.30E-07

  *** SCF run converged in     7 steps ***


  Electronic density on regular grids:       -640.0000000030       -0.0000000030
  Core density on regular grids:              639.9999999997       -0.0000000003
  Total charge density on r-space grids:       -0.0000000033
  Total charge density g-space grids:          -0.0000000033

  Overlap energy of the core charge distribution:               0.00000382349537
  Self energy of the core charge distribution:              -4281.17917236164612
  Core Hamiltonian energy:                                   1140.61788219782511
  Hartree energy:                                            1708.43124736996833
  Exchange-correlation energy:                               -345.92970928299928
  Dispersion energy:                                           -0.97443160219986

  Total energy:                                             -1779.03417985555620

  outer SCF iter =    1 RMS gradient =   0.77E-06 energy =      -1779.0341798556
  outer SCF loop converged in   1 iterations or    7 steps


  Integrated spin density:                                          0.0000000000
  Integrated absolute spin density:                                 0.0000000000
  Ideal and single determinant S**2 :                    0.000000       0.000000

 ENERGY| Total FORCE_EVAL ( QS ) energy [hartree]          -1779.034179944721018

 OPT| **************************************************************************
 OPT| Step number                                                              8
 OPT| Optimization method                                                   BFGS
 OPT| Total energy [hartree]                                    -1779.0341799447
 OPT| Effective energy change [hartree]                            -0.0000926886
 OPT| Predicted energy change [hartree]                            -0.0000710846
 OPT| Scaling factor                                                0.0000000000
 OPT| Step size                                                     0.0060903692
 OPT| Trust radius                                                  0.4724315332
 OPT| Decrease in energy                                                     YES
 OPT| Used time [s]                                                       26.789
 OPT|
 OPT| Maximum step size                                             0.0060903692
 OPT| Convergence limit for maximum step size                       0.0030000000
 OPT| Maximum step size is converged                                          NO
 OPT|
 OPT| RMS step size                                                 0.0031320542
 OPT| Convergence limit for RMS step size                           0.0015000000
 OPT| RMS step size is converged                                              NO
 OPT|
 OPT| Maximum gradient                                              0.0009592482
 OPT| Convergence limit for maximum gradient                        0.0004500000
 OPT| Maximum gradient is converged                                           NO
 OPT|
 OPT| RMS gradient                                                  0.0003833336
 OPT| Convergence limit for RMS gradient                            0.0003000000
 OPT| RMS gradient is converged                                               NO
 OPT| **************************************************************************
 OPT| Estimated peak process memory after this step [MiB]                   5916

 --------------------------
 OPTIMIZATION STEP:      9
 --------------------------

 Extrapolation method: ASPC

 Spin 1

 Number of electrons:                                                        320
 Number of occupied orbitals:                                                320
 Number of molecular orbitals:                                               320

 Spin 2

 Number of electrons:                                                        320
 Number of occupied orbitals:                                                320
 Number of molecular orbitals:                                               320

 Number of orbital functions:                                               1264
 Number of independent orbital functions:                                   1264


 SCF WAVEFUNCTION OPTIMIZATION

  ----------------------------------- OT ---------------------------------------
  Minimizer      : DIIS                : direct inversion
                                         in the iterative subspace
                                         using   7 DIIS vectors
                                         safer DIIS on
  Preconditioner : FULL_SINGLE_INVERSE : inversion of 
                                         H + eS - 2*(Sc)(c^T*H*c+const)(Sc)^T
  Precond_solver : INVERSE_UPDATE
  stepsize       :    0.10000000                  energy_gap     :    0.10000000
  eps_taylor     :   0.10000E-15                  max_taylor     :             4
  ----------------------------------- OT ---------------------------------------

  Step     Update method      Time    Convergence         Total energy    Change
  ------------------------------------------------------------------------------


     Lanczos converged:  T threshold:   0.100E-02
     Est. extremal eigenvalues:    0.101E+01   0.976E+00
     Est. condition number :    0.104E+01
     Hotelling iter   1 1.00000000   0.460E-02       0.060   134924.184



     Lanczos converged:  T threshold:   0.100E-02
     Est. extremal eigenvalues:    0.101E+01   0.976E+00
     Est. condition number :    0.104E+01
     Hotelling iter   1 1.00000000   0.460E-02       0.060   133632.361

     1 OT DIIS     0.10E+00    2.5     0.00003200     -1779.0340761159 -1.78E+03
     2 OT DIIS     0.10E+00    2.9     0.00002062     -1779.0341410619 -6.49E-05
     3 OT DIIS     0.10E+00    3.0     0.00001280     -1779.0341837252 -4.27E-05
     4 OT DIIS     0.10E+00    2.7     0.00000498     -1779.0342104330 -2.67E-05
     5 OT DIIS     0.10E+00    2.9     0.00000151     -1779.0342144454 -4.01E-06
     6 OT DIIS     0.10E+00    2.7     0.00000083     -1779.0342147321 -2.87E-07

  *** SCF run converged in     6 steps ***


  Electronic density on regular grids:       -640.0000000021       -0.0000000021
  Core density on regular grids:              639.9999999997       -0.0000000003
  Total charge density on r-space grids:       -0.0000000024
  Total charge density g-space grids:          -0.0000000024

  Overlap energy of the core charge distribution:               0.00000380857516
  Self energy of the core charge distribution:              -4281.17917236164612
  Core Hamiltonian energy:                                   1140.60918960384834
  Hartree energy:                                            1708.43672450178428
  Exchange-correlation energy:                               -345.92683653427201
  Dispersion energy:                                           -0.97412375034687

  Total energy:                                             -1779.03421473205708

  outer SCF iter =    1 RMS gradient =   0.83E-06 energy =      -1779.0342147321
  outer SCF loop converged in   1 iterations or    6 steps


  Integrated spin density:                                         -0.0000000000
  Integrated absolute spin density:                                 0.0000000000
  Ideal and single determinant S**2 :                    0.000000       0.000000

 ENERGY| Total FORCE_EVAL ( QS ) energy [hartree]          -1779.034214839088236

 OPT| **************************************************************************
 OPT| Step number                                                              9
 OPT| Optimization method                                                   BFGS
 OPT| Total energy [hartree]                                    -1779.0342148391
 OPT| Effective energy change [hartree]                            -0.0000348944
 OPT| Predicted energy change [hartree]                            -0.0000254571
 OPT| Scaling factor                                                0.0000000000
 OPT| Step size                                                     0.0037061124
 OPT| Trust radius                                                  0.4724315332
 OPT| Decrease in energy                                                     YES
 OPT| Used time [s]                                                       26.920
 OPT|
 OPT| Maximum step size                                             0.0037061124
 OPT| Convergence limit for maximum step size                       0.0030000000
 OPT| Maximum step size is converged                                          NO
 OPT|
 OPT| RMS step size                                                 0.0016986493
 OPT| Convergence limit for RMS step size                           0.0015000000
 OPT| RMS step size is converged                                              NO
 OPT|
 OPT| Maximum gradient                                              0.0005736785
 OPT| Convergence limit for maximum gradient                        0.0004500000
 OPT| Maximum gradient is converged                                           NO
 OPT|
 OPT| RMS gradient                                                  0.0002210618
 OPT| Convergence limit for RMS gradient                            0.0003000000
 OPT| RMS gradient is converged                                              YES
 OPT| **************************************************************************
 OPT| Estimated peak process memory after this step [MiB]                   5927

 --------------------------
 OPTIMIZATION STEP:     10
 --------------------------

 Extrapolation method: ASPC

 Spin 1

 Number of electrons:                                                        320
 Number of occupied orbitals:                                                320
 Number of molecular orbitals:                                               320

 Spin 2

 Number of electrons:                                                        320
 Number of occupied orbitals:                                                320
 Number of molecular orbitals:                                               320

 Number of orbital functions:                                               1264
 Number of independent orbital functions:                                   1264


 SCF WAVEFUNCTION OPTIMIZATION

  ----------------------------------- OT ---------------------------------------
  Minimizer      : DIIS                : direct inversion
                                         in the iterative subspace
                                         using   7 DIIS vectors
                                         safer DIIS on
  Preconditioner : FULL_SINGLE_INVERSE : inversion of 
                                         H + eS - 2*(Sc)(c^T*H*c+const)(Sc)^T
  Precond_solver : INVERSE_UPDATE
  stepsize       :    0.10000000                  energy_gap     :    0.10000000
  eps_taylor     :   0.10000E-15                  max_taylor     :             4
  ----------------------------------- OT ---------------------------------------

  Step     Update method      Time    Convergence         Total energy    Change
  ------------------------------------------------------------------------------


     Lanczos converged:  T threshold:   0.100E-02
     Est. extremal eigenvalues:    0.101E+01   0.989E+00
     Est. condition number :    0.102E+01
     Hotelling iter   1 1.00000000   0.347E-02       0.066   121600.062



     Lanczos converged:  T threshold:   0.100E-02
     Est. extremal eigenvalues:    0.101E+01   0.989E+00
     Est. condition number :    0.102E+01
     Hotelling iter   1 1.00000000   0.347E-02       0.058   139038.179

     1 OT DIIS     0.10E+00    2.1     0.00001280     -1779.0342121028 -1.78E+03
[...]
  Core Hamiltonian energy:                                   1140.58070291929312
  Hartree energy:                                            1708.45738881971761
  Exchange-correlation energy:                               -345.91927805938627
  Dispersion energy:                                           -0.97387826309631

  Total energy:                                             -1779.03423315516193

  outer SCF iter =    1 RMS gradient =   0.67E-06 energy =      -1779.0342331552
  outer SCF loop converged in   1 iterations or    5 steps


  Integrated spin density:                                          0.0000000000
  Integrated absolute spin density:                                 0.0000000000
  Ideal and single determinant S**2 :                    0.000000       0.000000

 ENERGY| Total FORCE_EVAL ( QS ) energy [hartree]          -1779.034233155161928

 -------------------------------------------------------------------------------
 -                                                                             -
 -                                DBCSR STATISTICS                             -
 -                                                                             -
 -------------------------------------------------------------------------------
 COUNTER                                    TOTAL       BLAS       SMM       ACC
 flops    14 x    14 x    14           1168900096       0.0%    100.0%      0.0%     
 flops    14 x    32 x    32           1211105280       0.0%    100.0%      0.0%     
 flops    32 x    32 x  1264           3417047040       0.0%    100.0%      0.0%     
 flops    13 x   320 x  1264           3912130560       0.0%    100.0%      0.0%     
 flops    13 x   320 x   320           4504780800       0.0%    100.0%      0.0%     
 flops    13 x    14 x    14           5416599552       0.0%    100.0%      0.0%     
 flops    14 x    14 x    13           5421817856       0.0%    100.0%      0.0%     
 flops    14 x    13 x    14           5427036160       0.0%    100.0%      0.0%     
 flops    13 x    32 x    32           5622988800       0.0%    100.0%      0.0%     
 flops    14 x    14 x   320           7131013120       0.0%    100.0%      0.0%     
 flops    13 x    14 x    13          25022816000       0.0%    100.0%      0.0%     
 flops    13 x    13 x    14          25148497920       0.0%    100.0%      0.0%     
 flops    14 x    13 x    13          25172725760       0.0%    100.0%      0.0%     
 flops    14 x    32 x    14          30507008000       0.0%    100.0%      0.0%     
 flops    13 x    14 x   320          31160729600       0.0%    100.0%      0.0%     
 flops    14 x    13 x   320          31160729600       0.0%    100.0%      0.0%     
 flops    92 x   320 x  1264         110743388160       0.0%    100.0%      0.0%     
 flops    13 x    13 x    13         116177360000       0.0%    100.0%      0.0%     
 flops    92 x   320 x   320         127519948800       0.0%    100.0%      0.0%     
 flops    13 x    32 x    14         141639680000       0.0%    100.0%      0.0%     
 flops    14 x    32 x    13         141639680000       0.0%    100.0%      0.0%     
 flops    13 x    13 x   320         146483251200       0.0%    100.0%      0.0%     
 flops    32 x   320 x   320         174981120000       0.0%    100.0%      0.0%     
 flops    79 x   320 x  1264         237737164800       0.0%    100.0%      0.0%     
 flops    79 x   320 x   320         273752064000       0.0%    100.0%      0.0%     
 flops    32 x   320 x  1264         354130329600       0.0%    100.0%      0.0%     
 flops    13 x    32 x    13         657612800000       0.0%    100.0%      0.0%     
 flops inhomo. stacks                 60213288960     100.0%      0.0%      0.0%
 flops total                         2.754036E+12       2.2%     97.8%      0.0%
 flops max/rank                      2.754036E+12       2.2%     97.8%      0.0%
 matmuls inhomo. stacks                      2064     100.0%      0.0%      0.0%
 matmuls total                          135593412       0.0%    100.0%      0.0%
 number of processed stacks                263682       0.8%     99.2%      0.0%
 average stack size                                     1.0     518.3       0.0
 marketing flops                     2.981264E+12
 -------------------------------------------------------------------------------
 # multiplications                           7618
 max memory usage/rank             101.001232E+09
 # max total images/rank                        1
 # max 3D layers                                1
 # MPI messages exchanged                       0
 -------------------------------------------------------------------------------
 -                                                                             -
 -                      DBCSR MESSAGE PASSING PERFORMANCE                      -
 -                                                                             -
 -------------------------------------------------------------------------------
 ROUTINE             CALLS      AVE VOLUME [Bytes]
 MP_Bcast               28                     12.
 MP_Allreduce        36241                      9.
 MP_Alltoall         28044                 564072.
 MP_ISend            30376                  26679.
 MP_IRecv            30376                  26679.
 -------------------------------------------------------------------------------

 -------------------------------------------------------------------------------
 -                                                                             -
 -                                GRID STATISTICS                              -
 -                                                                             -
 -------------------------------------------------------------------------------
 LP    KERNEL             BACKEND                              COUNT     PERCENT
 4     collocate ortho    GPU                               55208592      50.13%
 4     integrate ortho    GPU                               51649470      46.90%
 5     integrate ortho    GPU                                3262770       2.96%
 0     collocate general  CPU                                   1152       0.00%
 1     integrate general  CPU                                   1056       0.00%
 -------------------------------------------------------------------------------

 -------------------------------------------------------------------------------
 -                                                                             -
 -                          OFFLOAD MEMPOOL STATISTICS                         -
 -                                                                             -
 -------------------------------------------------------------------------------
 Memory consumption                Number of allocations  Used [MiB]  Size [MiB]
 Device                                               12         138         138
 Host                                                  7          86          86
 -------------------------------------------------------------------------------

 MEMORY| Estimated peak process memory [MiB]                                5927

 -------------------------------------------------------------------------------
 -                                                                             -
 -                         MESSAGE PASSING PERFORMANCE                         -
 -                                                                             -
 -------------------------------------------------------------------------------

 ROUTINE             CALLS      AVE VOLUME [Bytes]
 MP_Group                6
 MP_Bcast            18215                   2853.
 MP_Allreduce        52533                   2399.
 MP_Sync               206
 -------------------------------------------------------------------------------


 -------------------------------------------------------------------------------
 -                                                                             -
 -                           R E F E R E N C E S                               -
 -                                                                             -
 -------------------------------------------------------------------------------
 
 CP2K version 2026.1 (Development Version), the CP2K developers group (2026).
 CP2K is freely available from https://www.cp2k.org/ .
 
 T. D. Kuehne, M. Iannuzzi, M. Del Ben, V. V. Rybkin, P. Seewald, F. Stein, T. 
 Laino, R. Z. Khaliullin, O. Schuett, F. Schiffmann, D. Golze, J. Wilhelm, S. 
 Chulkov, M. H. Bani-Hashemian, V. Weber, U. Borstnik, M. Taillefumier, A. S. 
 Jakobovits, A. Lazzaro, H. Pabst, T. Mueller, R. Schade, M. Guidon, S. 
 Andermatt, N. Holmberg, G. K. Schenter, A. Hehn, A. Bussy, F. Belleflamme, G. 
 Tabacchi, A. Gloess, M. Lass, I. Bethune, C. J. Mundy, C. Plessl, M. Watkins, 
 J. VandeVondele, M. Krack, J. Hutter.
 J. Chem. Phys. 152, 194103 (2020).
 CP2K: An electronic structure and molecular dynamics software package - 
 Quickstep: Efficient and accurate electronic structure calculations.
 https://doi.org/10.1063/5.0007045

 E. Caldeweyher, J. M. Mewes, S. Ehlert, S. Grimme.
 Phys. Chem. Chem. Phys. 22, 8499-8512 (2020).
 Extension and evaluation of the D4 London-dispersion model for periodic 
 systems.
 https://doi.org/10.1039/d0cp00502a

 E. Caldeweyher, S. Ehlert, A. Hansen, H. Neugebauer, S. Spicher, C. Bannwarth, 
 S. Grimme.
 J. Chem. Phys. 150, 154122 (2019).
 A generally applicable atomic-charge dependent London dispersion correction.
 https://doi.org/10.1063/1.5090222

 E. Caldeweyher, C. Bannwarth, S. Grimme.
 J. Chem. Phys. 147, 034112 (2017).
 Extension of the D3 dispersion coefficient model.
 https://doi.org/10.1063/1.4993215

 O. Schuett, P. Messmer, J. Hutter, J. VandeVondele.
 Electronic Structure Calculations on Graphics Processing Units, 173-190 (2016).
 GPU-Accelerated Sparse Matrix-Matrix Multiplication for Linear Scaling Density 
 Functional Theory.
 https://doi.org/10.1002/9781118670712.ch8

 A. Heinecke, G. Henry, M. Hutchinson, H. Pabst.
 Proceedings of Intl. Supercomputing Conference, 981-991 (2016).
 LIBXSMM: Accelerating Small Matrix Multiplications by Runtime Code Generation.
 https://doi.org/10.1109/SC.2016.83

 F. Schiffmann, J. VandeVondele.
 J. Chem. Phys. 142, 244117 (2015).
 Efficient preconditioning of the electronic structure problem in large scale ab 
 initio molecular dynamics simulations.
 https://doi.org/10.1063/1.4922988

 J. Hutter, M. Iannuzzi, F. Schiffmann, J. VandeVondele.
 WIREs Comput Mol Sci. 4, 15-25 (2014).
 CP2K: atomistic simulations of condensed matter systems.
 https://doi.org/10.1002/wcms.1159

 U. Borstnik, J. VandeVondele, V. Weber, J. Hutter.
 Parallel Comput. 40, 47-58 (2014).
 Sparse matrix multiplication: The distributed block-compressed sparse row 
 library.
 https://doi.org/10.1016/j.parco.2014.03.012

 A. Marek, V. Blum, R. Johanni, V. Havu, B. Lang, T. Auckenthaler, A. Heinecke, 
 H. Bungartz, H. Lederer.
 J. Phys. Condens. Matter 26, 213201 (2014).
 The ELPA library: scalable parallel eigenvalue solutions for electronic 
 structure theory and computational science.
 https://doi.org/10.1088/0953-8984/26/21/213201

 J. VandeVondele, J. Hutter.
 J. Chem. Phys. 127, 114105 (2007).
 Gaussian basis sets for accurate calculations on molecular systems in gas and 
 condensed phases.
 https://doi.org/10.1063/1.2770708

 T. D. Khne, M. Krack, F. R. Mohamed, M. Parrinello.
 Phys. Rev. Lett. 98, 066401 (2007).
 Efficient and accurate Car-Parrinello-like approach to Born-Oppenheimer 
 molecular dynamics.
 https://doi.org/10.1103/PhysRevLett.98.066401

 J. VandeVondele, M. Krack, F. Mohamed, M. Parrinello, T. Chassaing, J. Hutter.
 Comput. Phys. Commun. 167, 103-128 (2005).
 QUICKSTEP: Fast and accurate density functional calculations using a mixed 
 Gaussian and plane waves approach.
 https://doi.org/10.1016/j.cpc.2004.12.014

 M. Krack.
 Theor. Chem. Acc. 114, 145-152 (2005).
 Pseudopotentials for H to Kr optimized for gradient-corrected 
 exchange-correlation functionals.
 https://doi.org/10.1007/s00214-005-0655-y

 M. Frigo, S. G. Johnson.
 Proc. IEEE 93, 216-231 (2005).
 The design and implementation of FFTW3.
 https://doi.org/10.1109/JPROC.2004.840301

 J. Kolafa.
 J. Comput. Chem. 25, 335-342 (2004).
 Time-reversible always stable predictor-corrector method for molecular dynamics 
 of polarizable molecules.
 https://doi.org/10.1002/jcc.10385

 J. VandeVondele, J. Hutter.
 J. Chem. Phys. 118, 4365-4369 (2003).
 An efficient orbital transformation method for electronic structure 
 calculations.
 https://doi.org/10.1063/1.1543154

 G. J. Martyna, M. E. Tuckerman.
 J. Chem. Phys. 110, 2810-2821 (1999).
 A reciprocal space based method for treating long range interactions in ab 
 initio and force-field-based calculations in clusters.
 https://doi.org/10.1063/1.477923

 C. Hartwigsen, S. Goedecker, J. Hutter.
 Phys. Rev. B 58, 3641-3662 (1998).
 Relativistic separable dual-space Gaussian pseudopotentials from H to Rn.
 https://doi.org/10.1103/PhysRevB.58.3641

 Y. K. Zhang, W. T. Yang.
 Phys. Rev. Lett. 80, 890-890 (1998).
 Comment on Generalized gradient approximation made simple.
 https://doi.org/10.1103/PhysRevLett.80.890

 G. Lippert, J. Hutter, M. Parrinello.
 Mol. Phys. 92, 477-487 (1997).
 A hybrid Gaussian and plane wave density functional scheme.
 https://doi.org/10.1080/002689797170220

 S. Goedecker, M. Teter, J. Hutter.
 Phys. Rev. B 54, 1703-1710 (1996).
 Separable dual-space Gaussian pseudopotentials.
 https://doi.org/10.1103/PhysRevB.54.1703

 J. P. Perdew, K. Burke, M. Ernzerhof.
 Phys. Rev. Lett. 77, 3865-3868 (1996).
 Generalized gradient approximation made simple.
 https://doi.org/10.1103/PhysRevLett.77.3865


 -------------------------------------------------------------------------------
 -                                                                             -
 -                                T I M I N G                                  -
 -                                                                             -
 -------------------------------------------------------------------------------
 SUBROUTINE                       CALLS  ASD         SELF TIME        TOTAL TIME
                                MAXIMUM       AVERAGE  MAXIMUM  AVERAGE  MAXIMUM
 CP2K                                 1  1.0    0.188    0.188  650.821  650.821
 cp_geo_opt                           1  2.0    0.001    0.001  646.117  646.117
 geoopt_bfgs                          1  3.0    0.018    0.018  646.117  646.117
 cp_eval_at                          12  4.0    0.001    0.001  644.650  644.650
 qs_forces                           11  5.0    0.001    0.001  624.527  624.527
 qs_energies                         12  5.9    0.001    0.001  608.658  608.658
 scf_env_do_scf                      12  6.9    0.001    0.001  552.440  552.440
 scf_env_do_scf_inner_loop          174  8.0    0.077    0.077  517.781  517.781
 rebuild_ks_matrix                  185  9.8    0.001    0.001  300.951  300.951
 qs_ks_build_kohn_sham_matrix       185 10.8    0.032    0.032  300.950  300.950
 qs_ks_update_qs_env                186  9.0    0.002    0.002  278.427  278.427
 qs_rho_update_rho_low              186  9.0    0.003    0.003  165.119  165.119
 calculate_rho_elec                 372 10.0    5.216    5.216  165.116  165.116
 sum_up_and_integrate               185 11.8    0.007    0.007  153.842  153.842
 integrate_v_rspace                 370 12.8    1.948    1.948  149.843  149.843
 grid_collocate_task_list           372 11.0  129.719  129.719  129.719  129.719
 grid_integrate_task_list           370 13.8  127.106  127.106  127.106  127.106
 qs_vxc_create                      185 11.8    0.003    0.003  105.013  105.013
 xc_vxc_pw_create                   185 12.8   15.363   15.363  105.010  105.010
 qs_scf_new_mos                     174  9.0    0.001    0.001   90.990   90.990
 qs_scf_loop_do_ot                  174 10.0    0.005    0.005   90.989   90.989
 ot_scf_mini                        174 11.0    0.006    0.006   87.061   87.061
 dbcsr_multiply_generic            7618 14.0    2.038    2.038   74.875   74.875
 xc_rho_set_and_dset_create         185 13.8   25.273   25.273   64.383   64.383
 ot_mini                            174 12.0    0.002    0.002   45.055   45.055
 fft_wrap_pw1pw2                   4279 13.2    0.066    0.066   36.355   36.355
 init_scf_loop                       12  7.9    0.000    0.000   34.232   34.232
 qs_ot_get_p                        372 11.8    0.003    0.003   34.152   34.152
 cp_fm_diag_elpa                    201 13.9    0.002    0.002   32.301   32.301
 cp_fm_diag_elpa_base               201 14.9   32.249   32.249   32.299   32.299
 make_m2s                         15236 15.0    0.088    0.088   31.817   31.817
 init_scf_run                        12  6.9    0.000    0.000   31.269   31.269
 scf_env_initial_rho_setup           12  7.9    0.000    0.000   31.268   31.268
 density_rs2pw                      372 11.0    0.032    0.032   30.181   30.181
 dbcsr_finalize                   16907 15.3    6.623    6.623   29.375   29.375
 fft_wrap_pw1pw2_210               1311 13.8    0.006    0.006   29.361   29.361
 qs_ot_get_derivative               348 13.0    0.003    0.003   28.831   28.831
 wfi_extrapolate                     12  8.9    0.003    0.003   28.077   28.077
 qs_ot_p2m_diag                     160 13.0    0.379    0.379   27.774   27.774
 qs_ks_update_qs_env_forces          11  6.0    0.000    0.000   23.437   23.437
 cp_dbcsr_syevd                     160 14.0    0.009    0.009   23.374   23.374
 xc_functional_eval                 185 14.8    0.002    0.002   22.900   22.900
 pbe_lsd_eval                       185 15.8   22.898   22.898   22.898   22.898
 dbcsr_merge_all                  15573 16.4   19.900   19.900   22.125   22.125
 pw_gpu_r3dc1d_3d                  2242 14.5   22.024   22.024   22.024   22.024
 pw_poisson_solve                   185 11.8    0.007    0.007   21.578   21.578
 potential_pw2rs                    370 13.8    0.493    0.493   20.789   20.789
 multiply_cannon                   7618 15.0    5.181    5.181   17.563   17.563
 make_images                      15236 16.0   12.607   12.607   17.128   17.128
 pw_axpy                           3722 12.6   16.875   16.875   16.875   16.875
 pw_nn_compose_r                   2960 15.7   16.750   16.750   16.750   16.750
 ot_diis_step                       174 13.0    0.019    0.019   16.209   16.209
 qs_energies_init_hamiltonians       12  6.9    0.000    0.000   15.929   15.929
 qs_ot_get_derivative_diag          158 14.0    0.003    0.003   15.109   15.109
 dbcsr_add_d                       6815 14.1    0.005    0.005   14.296   14.296
 dbcsr_add_anytype                 6815 15.1    1.434    1.434   14.291   14.291
 pw_gpu_c1dr3d_3d                  2037 16.0   14.249   14.249   14.249   14.249
 cp_dbcsr_sm_fm_multiply            160 10.6    0.004    0.004   13.783   13.783
 pw_copy                           2972 14.2   13.488   13.488   13.488   13.488
 write_mo_set_to_restart            174  9.0    0.119    0.119   13.407   13.407
 write_mo_set_low                    15  9.9    0.048    0.048   13.178   13.178
 -------------------------------------------------------------------------------

 The number of warnings for this run is : 0
 
 -------------------------------------------------------------------------------
  **** **** ******  **  PROGRAM ENDED AT                 2026-01-22 06:26:19.278
 ***** ** ***  *** **   PROGRAM RAN ON                              2fe93fb97c4f
 **    ****   ******    PROGRAM RAN BY                                 <unknown>
 ***** **    ** ** **   PROGRAM PROCESS ID                                   678
  **** **  *******  **  PROGRAM STOPPED IN                             /mnt/cp2k
