      96
 i =        1, E =     -1778.9923662229
 Ca         2.2163927403       -0.0000107404        2.2179195094
 Ca         4.1673368152        0.0000501322        5.6901859403
 Ca         5.4084977168        3.5283952227        2.2179879377
 Ca         0.9752126575        3.5284707336        5.6901581757
  S         1.0578062856       -0.0000618833        5.7267799509
  S         5.3263577913       -0.0000076244        2.1815687755
  S         4.2499176518        3.5284301105        5.7267768492
  S         2.1342758300        3.5284617265        2.1815746214
  O         0.1646682053        5.8750828987        5.7090983556
  O         6.2195420175        5.8750523959        2.1993454531
  O         6.2195259320        1.1817748733        2.1992531825
  O         0.1647188617        1.1817754370        5.7091694496
  O         3.3566651476        2.3467323155        5.7090859534
  O         3.0274561830        2.3466769752        2.1993245203
  O         3.0273761218        4.7103021838        2.1993478571
  O         3.3568230599        4.7102671948        5.7090762662
  O         1.9628765608        0.0000725964        6.9159890021
  O         4.4215159457        0.0000244530        0.9921754603
  O         1.9242282701        0.0000637758        4.4979787156
  O         4.4600906388        0.0000032864        3.4104938077
  O         5.1549308015        3.5283711305        6.9160190657
  O         1.2293407451        3.5283333764        0.9922636039
  O         5.1164097860        3.5284261774        4.4980090487
  O         1.2680101161        3.5284714421        3.4105183104
 Ca         2.2164124760        7.0568154764        2.2179831801
 Ca         4.1673112896        7.0568638710        5.6901595743
 Ca         5.4086201264       10.5853035976        2.2179088014
 Ca         0.9752304086       10.5852648138        5.6901214928
  S         1.0578146671        7.0568897336        5.7268227343
  S         5.3264140414        7.0568798282        2.1816022059
  S         4.2499237339       10.5853122162        5.7267774857
  S         2.1343092689       10.5852659071        2.1815558882
  O         0.1646206070       12.9318895830        5.7090689958
  O         6.2194690576       12.9318958882        2.1995064098
  O         6.2195199147        8.2387118850        2.1993333760
  O         0.1646584803        8.2386828044        5.7090870120
  O         3.3568101447        9.4034742346        5.7091580590
  O         3.0273923996        9.4034215476        2.1993398127
  O         3.0273964293       11.7671153158        2.1994248608
  O         3.3567869530       11.7671261597        5.7090902410
  O         1.9629354686        7.0568420194        6.9159879022
  O         4.4214725263        7.0568785859        0.9922856825
  O         1.9241902138        7.0568226719        4.4979799507
  O         4.4599897169        7.0568690492        3.4104109717
  O         5.1549057931       10.5852530161        6.9160483749
  O         1.2293515141       10.5852426238        0.9922411844
  O         5.1163245825       10.5853473285        4.4979575018
  O         1.2679615417       10.5854430345        3.4104259317
 Ca         8.6006200213       -0.0000156532        2.2179649595
 Ca        10.5515227843       -0.0000064738        5.6901803449
 Ca        11.7927751348        3.5284943382        2.2179671915
 Ca         7.3594596537        3.5283693415        5.6901607365
  S         7.4420154540        0.0000468919        5.7268287688
  S        11.7106656381       -0.0000470351        2.1815679452
  S        10.6341297274        3.5284290344        5.7268864840
  S         8.5185174063        3.5284289064        2.1815818072
  O         6.5489362648        5.8751149625        5.7090128357
  O        12.6037498277        5.8751244775        2.1993378979
  O        12.6036190040        1.1818994714        2.1993956632
  O         6.5488760468        1.1818625921        5.7090514571
  O         9.7409611883        2.3466403697        5.7089457900
  O         9.4116359440        2.3466033415        2.1993290016
  O         9.4117153077        4.7102025020        2.1993190249
  O         9.7410283736        4.7102529882        5.7090180247
  O         8.3471109725       -0.0000327900        6.9160080957
  O        10.8056687721       -0.0000081012        0.9923021278
  O         8.3083734619       -0.0001192296        4.4979763639
  O        10.8443228361        0.0000278308        3.4104531147
  O        11.5392393220        3.5284637354        6.9160697339
  O         7.6135394108        3.5283842799        0.9922916919
  O        11.5004888055        3.5283817435        4.4980377948
  O         7.6521343209        3.5285550450        3.4104243456
 Ca         8.6006830755        7.0568592242        2.2179747429
 Ca        10.5515345116        7.0569033643        5.6901247437
 Ca        11.7927611187       10.5852977231        2.2179345968
 Ca         7.3594754995       10.5853376251        5.6901559178
  S         7.4420235015        7.0569450378        5.7268400656
  S        11.7105792393        7.0569099650        2.1816208646
  S        10.6341340315       10.5852958028        5.7268598545
  S         8.5184792075       10.5853275885        2.1816084489
  O         6.5489023657       12.9319383648        5.7090921292
  O        12.6037267495       12.9318246577        2.1993191933
  O        12.6037571503        8.2386861293        2.1993066203
  O         6.5487069334        8.2386323007        5.7090866779
  O         9.7409804928        9.4034887810        5.7090962900
  O         9.4116532990        9.4035399714        2.1993635024
  O         9.4116549380       11.7671218042        2.1993258998
  O         9.7410223564       11.7671282294        5.7089676306
  O         8.3471484283        7.0569815467        6.9160104883
  O        10.8057470382        7.0568539104        0.9922151425
  O         8.3084355159        7.0567136331        4.4980238457
  O        10.8441778970        7.0568384392        3.4104606851
  O        11.5391566927       10.5852134540        6.9160896878
  O         7.6135959798       10.5852205971        0.9922522719
  O        11.5004872590       10.5853993254        4.4979936177
  O         7.6520756653       10.5853209174        3.4104419512
      96
 i =        2, E =     -1779.0242726434
 Ca         2.2225819142       -0.0000145318        2.2393021214
 Ca         4.1610703429        0.0000222767        5.6684759079
 Ca         5.4146621448        3.5284078601        2.2393077405
 Ca         0.9690352216        3.5284455380        5.6684798821
  S         1.0556997693        0.0000320120        5.7341059121
  S         5.3284292078       -0.0000092933        2.1742243816
  S         4.2477991025        3.5284504072        5.7341269827
  S         2.1363710600        3.5284348244        2.1742345779
  O         0.1424337412        5.8629033810        5.7210393396
  O         6.2416313722        5.8628647362        2.1874525086
  O         6.2416665803        1.1939722929        2.1873632501
  O         0.1424210928        1.1939710600        5.7210710157
  O         3.3344768231        2.3345669328        5.7209319449
  O         3.0496093813        2.3344544931        2.1874367382
  O         3.0494818210        4.7225011891        2.1874079267
  O         3.3346352404        4.7224711664        5.7209431329
  O         1.9918530299       -0.0000230096        6.8990371337
  O         4.3923961028       -0.0000491036        1.0092062302
  O         1.9366113214        0.0000351687        4.5043798732
  O         4.4473572484        0.0000690756        3.4037804776
  O         5.1838910133        3.5283309392        6.8991025381
  O         1.2002475781        3.5283637079        1.0092910123
  O         5.1288161280        3.5284125752        4.5044611396
  O         1.2552746213        3.5284497153        3.4037835470
 Ca         2.2225398925        7.0568276976        2.2392789545
 Ca         4.1611789709        7.0568726051        5.6684590312
 Ca         5.4147355080       10.5853100659        2.2392985297
 Ca         0.9690445327       10.5852730536        5.6684240329
  S         1.0557161629        7.0568482978        5.7341087716
  S         5.3284325269        7.0568738791        2.1742235085
  S         4.2478262173       10.5853038009        5.7341277765
  S         2.1363269331       10.5853028521        2.1742242576
  O         0.1425229801       12.9197535280        5.7209838063
  O         6.2416082342       12.9196998183        2.1875590473
  O         6.2416392972        8.2508754480        2.1874630647
  O         0.1425055491        8.2508356330        5.7210047724
  O         3.3345754442        9.3913268003        5.7210156790
  O         3.0494694575        9.3912715588        2.1874643580
  O         3.0495663081       11.7792858434        2.1874629392
  O         3.3345712319       11.7792705930        5.7210096827
  O         1.9918071341        7.0568886871        6.8990744547
  O         4.3923823456        7.0568901084        1.0092154356
  O         1.9366388350        7.0568381689        4.5043852242
  O         4.4473443261        7.0568673289        3.4037709578
  O         5.1839445785       10.5852901174        6.8990809942
  O         1.2003034955       10.5852638357        1.0091835860
  O         5.1287023276       10.5853380711        4.5043767482
  O         1.2552397820       10.5853735988        3.4037776449
 Ca         8.6068221282        0.0000007488        2.2393080195
 Ca        10.5453509866        0.0000028958        5.6684224862
 Ca        11.7988345469        3.5284606120        2.2393384925
 Ca         7.3532696760        3.5284338701        5.6684452297
  S         7.4399313608       -0.0000222430        5.7341022163
  S        11.7125865379        0.0000061610        2.1742361776
  S        10.6320287413        3.5284372847        5.7340841916
  S         8.5205525299        3.5284299079        2.1742215253
  O         6.5267226014        5.8628346418        5.7210183237
  O        12.6259068795        5.8628893460        2.1874850817
  O        12.6258237965        1.1939910503        2.1874751349
  O         6.5267152576        1.1939694629        5.7209947587
  O         9.7187381316        2.3345000906        5.7209575987
  O         9.4337081353        2.3343978388        2.1874753300
  O         9.4338146399        4.7223969970        2.1873876575
  O         9.7188365687        4.7224290608        5.7209996988
  O         8.3760404159        0.0000116887        6.8990552916
  O        10.7765816282       -0.0000340599        1.0092017559
  O         8.3208384896       -0.0000783473        4.5043689440
  O        10.8315856547       -0.0000364836        3.4038584048
  O        11.5680791505        3.5284081240        6.8990870088
  O         7.5844830755        3.5284038614        1.0092208830
  O        11.5130513064        3.5283974408        4.5044329995
  O         7.6394695566        3.5285395864        3.4037748805
 Ca         8.6067585263        7.0568476972        2.2393067566
 Ca        10.5453238470        7.0568817903        5.6684614107
 Ca        11.7988817668       10.5853218369        2.2393006837
 Ca         7.3531839636       10.5853758451        5.6684525815
  S         7.4398805778        7.0568487099        5.7340881072
  S        11.7126726344        7.0568733559        2.1741879212
  S        10.6320124583       10.5853014626        5.7341021470
  S         8.5205549068       10.5852998435        2.1742092254
  O         6.5266270851       12.9197728591        5.7210799439
  O        12.6258587720       12.9197935735        2.1874249864
  O        12.6258295112        8.2509016532        2.1874697366
  O         6.5266339206        8.2508048914        5.7209698588
  O         9.7187438270        9.3913428594        5.7210009769
  O         9.4337659084        9.3912979841        2.1875043981
  O         9.4337362810       11.7793241138        2.1874514220
  O         9.7187964122       11.7792910939        5.7209793811
  O         8.3759744176        7.0570394281        6.8990670341
  O        10.7765970858        7.0568904790        1.0091931049
  O         8.3209147575        7.0568470272        4.5044404341
  O        10.8315785901        7.0568685369        3.4037370253
  O        11.5680727910       10.5852473431        6.8990794818
  O         7.5845047742       10.5852509049        1.0091993196
  O        11.5130090671       10.5853172269        4.5044271814
  O         7.6394793210       10.5853150747        3.4037667451
      96
 i =        3, E =     -1779.0300935534
 Ca         2.2126442173       -0.0000145330        2.2366800534
 Ca         4.1705201451        0.0000219997        5.6720676878
 Ca         5.4047672070        3.5284140772        2.2367112251
 Ca         0.9784579173        3.5284550576        5.6720868428
  S         1.0547829899        0.0000011015        5.7411716626
  S         5.3293671387       -0.0000133185        2.1671280536
  S         4.2468880972        3.5284399822        5.7411683600
  S         2.1372404262        3.5284359113        2.1671260881
  O         0.1383853834        5.8551647166        5.7319610666
  O         6.2457597153        5.8551546438        2.1765449208
  O         6.2458013209        1.2016907320        2.1764690286
  O         0.1383760596        1.2016880752        5.7319882463
  O         3.3304233817        2.3268072237        5.7318590561
  O         3.0537200584        2.3267664406        2.1765502849
  O         3.0536285343        4.7301694147        2.1764997401
  O         3.3305836114        4.7302037432        5.7318914432
  O         1.9880258465       -0.0000015338        6.9056600713
  O         4.3966118109       -0.0000634317        1.0022380273
  O         1.9300972050        0.0000645495        4.5021016357
  O         4.4540019972        0.0000938371        3.4061233376
  O         5.1800508228        3.5283521040        6.9057133908
  O         1.2044828119        3.5283715504        1.0022408722
  O         5.1222948698        3.5284062294        4.5021506677
  O         1.2619380043        3.5284327349        3.4061752879
 Ca         2.2126329871        7.0568516515        2.2366791479
 Ca         4.1705770209        7.0568927384        5.6720552625
 Ca         5.4047784921       10.5853028381        2.2366892992
 Ca         0.9784676034       10.5852742881        5.6720533509
  S         1.0547850865        7.0568655642        5.7411771848
  S         5.3293459857        7.0568727622        2.1671170485
  S         4.2468811123       10.5853081942        5.7411738629
  S         2.1372623478       10.5852928914        2.1671167987
  O         0.1384194716       12.9120163300        5.7319144571
  O         6.2457583029       12.9119870225        2.1766380477
  O         6.2457784981        8.2585767281        2.1765626663
  O         0.1384109492        8.2585807456        5.7319144445
  O         3.3305004188        9.3835879957        5.7319357800
  O         3.0536301382        9.3835563168        2.1765801392
  O         3.0536964440       11.7869976164        2.1765348387
  O         3.3304910117       11.7870170880        5.7319526872
  O         1.9880074803        7.0568661365        6.9056713131
  O         4.3966076268        7.0568868958        1.0022126882
  O         1.9301214081        7.0568272517        4.5021222579
  O         4.4540032365        7.0568641237        3.4061306811
  O         5.1801187054       10.5852962665        6.9056602889
  O         1.2045103363       10.5852977381        1.0022126378
  O         5.1222155576       10.5853250348        4.5021223362
  O         1.2618782156       10.5853644555        3.4061051900
 Ca         8.5968433758       -0.0000151472        2.2366898972
 Ca        10.5547840863       -0.0000065285        5.6720671315
 Ca        11.7889776827        3.5284615270        2.2367172925
 Ca         7.3626817662        3.5284131782        5.6720679909
  S         7.4389911915       -0.0000091172        5.7411800010
  S        11.7135944583        0.0000003908        2.1671244985
  S        10.6311066807        3.5284389765        5.7411736737
  S         8.5214677046        3.5284267346        2.1671078635
  O         6.5226674702        5.8551413256        5.7319493462
  O        12.6300084299        5.8551866341        2.1765501834
  O        12.6299574441        1.2017528412        2.1765629002
  O         6.5226317964        1.2017192895        5.7319018095
  O         9.7146799495        2.3267579719        5.7318688843
  O         9.4378427545        2.3266854956        2.1765942777
  O         9.4379305652        4.7301115857        2.1764763081
  O         9.7147550778        4.7301637052        5.7318981441
  O         8.3722344084        0.0000068224        6.9056577919
  O        10.7807818790       -0.0000133049        1.0022802253
  O         8.3143086550       -0.0000822600        4.5021120818
  O        10.8382151496       -0.0000383645        3.4061157184
  O        11.5642774966        3.5283952557        6.9057104677
  O         7.5887121340        3.5284156091        1.0022123916
  O        11.5064972219        3.5284041429        4.5021530364
  O         7.6461308576        3.5285290116        3.4061265745
 Ca         8.5968700643        7.0568547981        2.2367005698
 Ca        10.5547571252        7.0569122297        5.6720680349
 Ca        11.7889754676       10.5853199782        2.2367029495
 Ca         7.3626472434       10.5853421149        5.6720582262
  S         7.4389972028        7.0568792389        5.7411725116
  S        11.7135738970        7.0568894379        2.1671145155
  S        10.6310940861       10.5853041274        5.7411742379
  S         8.5214795869       10.5852917029        2.1671252504
  O         6.5225661118       12.9120375506        5.7319972436
  O        12.6300096764       12.9120280707        2.1765203054
  O        12.6299724477        8.2586113552        2.1765523211
  O         6.5225508145        8.2585371676        5.7318400495
  O         9.7146734383        9.3836175912        5.7318869454
  O         9.4379052374        9.3835834136        2.1765886338
  O         9.4378738448       11.7870251374        2.1765281952
  O         9.7147213669       11.7870237516        5.7319080887
  O         8.3721694817        7.0569767233        6.9057159088
  O        10.7808433842        7.0568707291        1.0022012590
  O         8.3143597718        7.0568503909        4.5021267822
  O        10.8382057027        7.0568555455        3.4061157823
  O        11.5642817053       10.5852714738        6.9056874006
  O         7.5887429573       10.5852639845        1.0022179624
  O        11.5064683218       10.5853011768        4.5021392147
  O         7.6461126981       10.5853174084        3.4061227132
      96
 i =        4, E =     -1779.0323688253
 Ca         2.2002196839       -0.0000010675        2.2327999414
 Ca         4.1830144622        0.0000302522        5.6753208559
 Ca         5.3922953479        3.5284300201        2.2328314669
 Ca         0.9909225497        3.5284496718        5.6753435635
  S         1.0525836202        0.0000049475        5.7508546859
  S         5.3314972574       -0.0000091268        2.1574934865
  S         4.2446939998        3.5284382924        5.7508472739
  S         2.1394234267        3.5284300946        2.1574859557
  O         0.1347454208        5.8502422239        5.7451250275
  O         6.2494014404        5.8502150354        2.1634303101
  O         6.2494331344        1.2066145377        2.1633797505
  O         0.1347343209        1.2066147322        5.7451460436
  O         3.3268136928        2.3218552552        5.7450305732
  O         3.0573349442        2.3217924317        2.1634469489
  O         3.0572845853        4.7351050921        2.1633970728
  O         3.3269280108        4.7351121648        5.7450674455
  O         1.9817966250       -0.0000062238        6.9147852282
  O         4.4024536916       -0.0000688909        0.9934348234
  O         1.9209118695        0.0000558497        4.5044599190
  O         4.4633743954        0.0000874892        3.4040305338
  O         5.1738358255        3.5283670532        6.9148289343
  O         1.2103173904        3.5283877389        0.9934751608
  O         5.1130925519        3.5284042489        4.5044936690
  O         1.2712981716        3.5284330665        3.4040199398
 Ca         2.2001789840        7.0568595660        2.2328109619
 Ca         4.1830493916        7.0568890452        5.6753099173
 Ca         5.3923065622       10.5852860588        2.2328070843
 Ca         0.9909237858       10.5852839049        5.6753209949
  S         1.0525942738        7.0568587882        5.7508564790
  S         5.3315086901        7.0568681262        2.1574828657
  S         4.2446976120       10.5853115881        5.7508530229
  S         2.1393938955       10.5853008164        2.1574820596
  O         0.1347828701       12.9070971064        5.7450844272
  O         6.2493917733       12.9070763481        2.1635201535
  O         6.2494141934        8.2635123995        2.1634540232
  O         0.1347696835        8.2634917914        5.7450779692
  O         3.3268555565        9.3786877027        5.7450879586
  O         3.0572782866        9.3786505308        2.1634827597
  O         3.0573304885       11.7919237175        2.1634205155
  O         3.3268541088       11.7919316967        5.7451150940
  O         1.9817768824        7.0568732681        6.9148041486
  O         4.4024477923        7.0568908036        0.9934372514
  O         1.9209285707        7.0568366772        4.5044677208
  O         4.4633642476        7.0568636534        3.4040027666
  O         5.1738811217       10.5852961999        6.9148015129
  O         1.2103549404       10.5853055117        0.9934152131
  O         5.1130244423       10.5853222954        4.5044602567
  O         1.2712578487       10.5853461213        3.4040151358
 Ca         8.5844172768       -0.0000223368        2.2328115214
 Ca        10.5672405325        0.0000065467        5.6753220881
 Ca        11.7764922692        3.5284554155        2.2328404306
 Ca         7.3751408029        3.5284190802        5.6753239499
  S         7.4367992990       -0.0000086640        5.7508567433
  S        11.7156791666        0.0000027653        2.1574914425
  S        10.6289039219        3.5284358473        5.7508518981
  S         8.5236243530        3.5284299199        2.1574765446
  O         6.5190026121        5.8502135426        5.7451307145
  O        12.6336425648        5.8502432219        2.1634386466
  O        12.6335942864        1.2066379577        2.1634525834
  O         6.5189864253        1.2066311518        5.7450703584
  O         9.7110504761        2.3218226628        5.7450489133
  O         9.4414892181        2.3217599994        2.1634901775
  O         9.4415557963        4.7350576290        2.1633683756
  O         9.7111091035        4.7350859200        5.7450681638
  O         8.3659938179        0.0000112832        6.9147956386
  O        10.7866581290        0.0000000472        0.9934168074
  O         8.3051260954       -0.0000763594        4.5044636432
  O        10.8475960722       -0.0000411357        3.4040617842
  O        11.5580503144        3.5283961204        6.9148286184
  O         7.5945575509        3.5284146934        0.9934343482
  O        11.4973015071        3.5284196338        4.5045020582
  O         7.6554958055        3.5285139280        3.4040089151
 Ca         8.5844025430        7.0568462250        2.2328225167
 Ca        10.5672323337        7.0569103516        5.6753219409
 Ca        11.7765123513       10.5853320116        2.2328206499
 Ca         7.3751230834       10.5853158265        5.6753138538
  S         7.4367825796        7.0568743679        5.7508491655
  S        11.7157249624        7.0568806625        2.1574802471
  S        10.6288981547       10.5853079432        5.7508472688
  S         8.5236227323       10.5852920870        2.1574892795
  O         6.5189364818       12.9071205893        5.7451624304
  O        12.6336397966       12.9071403022        2.1634165330
  O        12.6336097699        8.2635359317        2.1634564237
  O         6.5189357616        8.2634854358        5.7450024156
  O         9.7110481055        9.3786941326        5.7450493618
  O         9.4415333563        9.3786540099        2.1634825398
  O         9.4415233791       11.7919395410        2.1634266607
  O         9.7110836059       11.7919480903        5.7450875431
  O         8.3659595634        7.0569566032        6.9148068259
  O        10.7866743672        7.0568739157        0.9934264461
  O         8.3051746871        7.0568608743        4.5044950376
  O        10.8475849015        7.0568578488        3.4040075992
  O        11.5580576553       10.5852813289        6.9148104919
  O         7.5945736030       10.5852670874        0.9934322081
  O        11.4972742016       10.5852938914        4.5044823165
  O         7.6554829345       10.5853116006        3.4040153874
      96
 i =        5, E =     -1779.0331955590
 Ca         2.1946020418        0.0000019537        2.2330945877
 Ca         4.1889399987        0.0000239954        5.6753281671
 Ca         5.3867383076        3.5284319787        2.2331125530
 Ca         0.9968350788        3.5284380762        5.6753358037
  S         1.0512386150        0.0000001193        5.7589639268
  S         5.3326963729       -0.0000092927        2.1495534409
  S         4.2433478629        3.5284339084        5.7589567050
  S         2.1405661108        3.5284277239        2.1495481399
  O         0.1321163551        5.8495674641        5.7551727476
  O         6.2519245472        5.8495975453        2.1533428721
  O         6.2519518439        1.2072580206        2.1533049723
  O         0.1321044162        1.2072822528        5.7551898868
  O         3.3241896966        2.3211692687        5.7550908090
  O         3.0598446565        2.3211784564        2.1533587826
  O         3.0598214497        4.7356959590        2.1533182893
  O         3.3242756490        4.7357638045        5.7551240877
  O         1.9791100758       -0.0000000716        6.9213678798
  O         4.4048442862       -0.0000616367        0.9871444055
  O         1.9146579896        0.0000498930        4.5093478484
  O         4.4693254850        0.0000731725        3.3991527986
  O         5.1711659399        3.5283814818        6.9213991409
  O         1.2127213932        3.5283973984        0.9871341132
  O         5.1068206931        3.5284136476        4.5093715346
  O         1.2772492937        3.5284373136        3.3991847081
 Ca         2.1946112740        7.0568678558        2.2331035283
 Ca         4.1889487606        7.0568932098        5.6753155228
 Ca         5.3867108467       10.5852834454        2.2330982624
 Ca         0.9968474188       10.5852952263        5.6753280901
  S         1.0512377689        7.0568624429        5.7589675405
  S         5.3326759708        7.0568691073        2.1495408364
  S         4.2433319611       10.5853130962        5.7589596394
  S         2.1405853108       10.5853049891        2.1495464090
  O         0.1321353036       12.9064342768        5.7551381569
  O         6.2519259370       12.9064454264        2.1534239218
  O         6.2519416844        8.2641290118        2.1533693640
  O         0.1321220777        8.2641630930        5.7551291009
  O         3.3242164441        9.3780129279        5.7551321329
  O         3.0598131864        9.3780226067        2.1533927333
  O         3.0598492241       11.7925663607        2.1533364528
  O         3.3242204035       11.7926135734        5.7551613163
  O         1.9790993291        7.0568720579        6.9213760575
  O         4.4048428385        7.0568897515        0.9871188477
  O         1.9146689666        7.0568380311        4.5093626367
  O         4.4693216810        7.0568582851        3.3991520225
  O         5.1711978264       10.5852918363        6.9213652099
  O         1.2127438673       10.5853065195        0.9871295733
  O         5.1067715685       10.5853210409        4.5093607627
  O         1.2772091827       10.5853398199        3.3991448575
 Ca         8.5788008732       -0.0000255874        2.2331027691
 Ca        10.5731595336        0.0000082688        5.6753363091
 Ca        11.7709539742        3.5284478415        2.2331177613
 Ca         7.3810562154        3.5284190738        5.6753283687
  S         7.4354419250       -0.0000091483        5.7589707878
  S        11.7169194955        0.0000036007        2.1495449285
  S        10.6275552133        3.5284365148        5.7589682377
  S         8.5247903334        3.5284296465        2.1495389666
  O         6.5163531795        5.8495706279        5.7551785058
  O        12.6361570285        5.8496160663        2.1533471388
  O        12.6361225751        1.2073038409        2.1533709841
  O         6.5163429477        1.2072998514        5.7551172476
  O         9.7084166085        2.3211531089        5.7551009248
  O         9.4440234912        2.3211480632        2.1534038059
  O         9.4440677917        4.7356829637        2.1532930460
  O         9.7084576317        4.7357470192        5.7551213323
  O         8.3633122889        0.0000161072        6.9213733211
  O        10.7890341835        0.0000058081        0.9871607045
  O         8.2988651851       -0.0000664010        4.5093610467
  O        10.8535358594       -0.0000366854        3.3991336386
  O        11.5553746782        3.5284001660        6.9214092342
  O         7.5969514483        3.5284106720        0.9871224279
  O        11.4910243199        3.5284281926        4.5093820426
  O         7.6614436121        3.5285004105        3.3991553136
 Ca         8.5788424637        7.0568505674        2.2331085656