 DBCSR| CPU Multiplication driver                                           XSMM (U)
 DBCSR| Multrec recursion limit                                              512 (U)
 DBCSR| Multiplication stack size                                           1000 (D)
 DBCSR| Maximum elements for images                                    UNLIMITED (U)
 DBCSR| Multiplicative factor virtual images                                   1 (U)
 DBCSR| Use multiplication densification                                       T (D)
 DBCSR| Multiplication size stacks                                             3 (U)
 DBCSR| Use memory pool for CPU allocation                                     F (U)
 DBCSR| Number of 3D layers                                               SINGLE (U)
 DBCSR| Use MPI memory allocation                                              F (U)
 DBCSR| Use RMA algorithm                                                      F (U)
 DBCSR| Use Communication thread                                               T (U)
 DBCSR| Communication thread load                                             30 (D)
 DBCSR| MPI: My process id                                                     0
 DBCSR| MPI: Number of processes                                               1
 DBCSR| OMP: Current number of threads                                        16
 DBCSR| OMP: Max number of threads                                            16
 DBCSR| Split modifier for TAS multiplication algorithm                  1.0E+00 (U)


  **** **** ******  **  PROGRAM STARTED AT               2026-01-21 16:12:55.486
 ***** ** ***  *** **   PROGRAM STARTED ON                          8df8661787e0
 **    ****   ******    PROGRAM STARTED BY                             <unknown>
 ***** **    ** ** **   PROGRAM PROCESS ID                                   678
  **** **  *******  **  PROGRAM STARTED IN                             /mnt/cp2k

 CP2K| version string:                 CP2K version 2026.1 (Development Version)
 CP2K| source code revision number:                                   4e96ea1a00
 CP2K| cp2kflags: omp libint fftw3 libxc elpa parallel scalapack mpi_f08 cosma a
 CP2K|            ce deepmd xsmm dbcsr_acc plumed2 spglib libdftd4 mctc-lib tbli
 CP2K|            ite sirius libvori libbqb libtorch mimic offload_cuda libvdwxc
 CP2K|            c hdf5 trexio libsmeagol greenx
 CP2K| is freely available from                            https://www.cp2k.org/
 CP2K| Program compiled at                                   2026-01-16 05:48:39
 CP2K| Program compiled on                                                      
 CP2K| Program compiled for                                               x86_64
 CP2K| Data directory path                     /opt/cp2k/install/share/cp2k/data
 CP2K| Input file name                                               geo_opt.inp

 GLOBAL| Force Environment number                                              1
 GLOBAL| Basis set file name                                    BASIS_MOLOPT_UZH
 GLOBAL| Potential file name                                       POTENTIAL_UZH
 GLOBAL| MM Potential file name                                     MM_POTENTIAL
 GLOBAL| Coordinate file name              conventional_cell_slab_020_L1_2x2.xyz
 GLOBAL| Method name                                                        CP2K
 GLOBAL| Project name                                         gypsum_slab_geoopt
 GLOBAL| Run type                                                        GEO_OPT
 GLOBAL| FFT library                                                       FFTW3
 GLOBAL| Diagonalization library                                            ELPA
 GLOBAL| Cholesky decomposition library                                ScaLAPACK
 GLOBAL| DGEMM library                                                      BLAS
 GLOBAL| Minimum number of eigenvectors for ELPA usage                        16
 GLOBAL| Orthonormality check for eigenvectors                          DISABLED
 GLOBAL| Matrix multiplication library                                     COSMA
 GLOBAL| All-to-all communication in single precision                          F
 GLOBAL| FFTs using library dependent lengths                                  F
 GLOBAL| Grid backend                                                       AUTO
 GLOBAL| Global print level                                                  LOW
 GLOBAL| MPI I/O enabled                                                       T
 GLOBAL| Total number of message passing processes                             1
 GLOBAL| Number of distributed systems (nodes)                                 1
 GLOBAL| Number of threads for this process                                   16
 GLOBAL| This output is from process                                           0
 GLOBAL| OpenMP stack size per thread (OMP_STACKSIZE)                        16M
 GLOBAL| CPU model name                           Intel(R) Core(TM) Ultra 7 265K
 GLOBAL| CPUID                                                              1002

 MEMORY| system memory details [Kb]
 MEMORY|                        rank 0           min           max       average
 MEMORY| MemTotal             32486564      32486564      32486564      32486564
 MEMORY| MemFree               9542716       9542716       9542716       9542716
 MEMORY| Buffers                 38824         38824         38824         38824
 MEMORY| Cached                2435880       2435880       2435880       2435880
 MEMORY| Slab                   192992        192992        192992        192992
 MEMORY| SReclaimable            73020         73020         73020         73020
 MEMORY| MemLikelyFree        12090440      12090440      12090440      12090440


 GENERATE|  Preliminary Number of Bonds generated:                             0
 GENERATE|  Achieved consistency in connectivity generation.

 *******************************************************************************
 *******************************************************************************
 **                                                                           **
 **     #####                         ##              ##                      **
 **    ##   ##            ##          ##              ##                      **
 **   ##     ##                       ##            ######                    **
 **   ##     ##  ##   ##  ##   #####  ##  ##   ####   ##    #####    #####    **
 **   ##     ##  ##   ##  ##  ##      ## ##   ##      ##   ##   ##  ##   ##   **
 **   ##  ## ##  ##   ##  ##  ##      ####     ###    ##   ######   ######    **
 **    ##  ###   ##   ##  ##  ##      ## ##      ##   ##   ##       ##        **
 **     #######   #####   ##   #####  ##  ##  ####    ##    #####   ##        **
 **           ##                                                    ##        **
 **                                                                           **
 **                                                ... make the atoms dance   **
 **                                                                           **
 **            Copyright (C) by CP2K developers group (2000-2026)             **
 **                      J. Chem. Phys. 152, 194103 (2020)                    **
 **                                                                           **
 *******************************************************************************


 TOTAL NUMBERS AND MAXIMUM NUMBERS

  Total number of            - Atomic kinds:                                   4
                             - Atoms:                                        360
                             - Shell sets:                                   360
                             - Shells:                                      1896
                             - Primitive Cartesian functions:               1800
                             - Cartesian basis functions:                   5136
                             - Spherical basis functions:                   4776

  Maximum angular momentum of- Orbital basis functions:                        2
                             - Local part of the GTH pseudopotential:          2
                             - Non-local part of the GTH pseudopotential:      3


 SCF PARAMETERS         Density guess:                                    ATOMIC
                        --------------------------------------------------------
                        max_scf:                                             120
                        max_scf_history:                                       0
                        max_diis:                                              4
                        --------------------------------------------------------
                        eps_scf:                                        1.00E-06
                        eps_scf_history:                                0.00E+00
                        eps_diis:                                       0.00E+00
                        eps_eigval:                                     1.00E-05
                        --------------------------------------------------------
                        level_shift [a.u.]:                             0.000000
                        --------------------------------------------------------
                        Outer loop SCF in use 
                        No variables optimised in outer loop
                        eps_scf                                         1.00E-06
                        max_scf                                               20
                        No outer loop optimization
                        step_size                                       5.00E-01

 BFGS| Use rational function optimization for step estimation:                NO
 BFGS| Use model Hessian for initial guess:                                  YES
 BFGS| Restart Hessian:                                                       NO
 BFGS| Trust radius:                                                       0.472

 *******************************************************************************
 ***                     STARTING GEOMETRY OPTIMIZATION                      ***
 ***                                   BFGS                                  ***
 *******************************************************************************

 Extrapolation method: initial_guess

 Spin 1

 Number of electrons:                                                       1056
 Number of occupied orbitals:                                               1056
 Number of molecular orbitals:                                              1056

 Spin 2

 Number of electrons:                                                       1056
 Number of occupied orbitals:                                               1056
 Number of molecular orbitals:                                              1056

 Number of orbital functions:                                               4776
 Number of independent orbital functions:                                   4776


 SCF WAVEFUNCTION OPTIMIZATION

  ----------------------------------- OT ---------------------------------------
  Minimizer      : DIIS                : direct inversion
                                         in the iterative subspace
                                         using   7 DIIS vectors
                                         safer DIIS on
  Preconditioner : FULL_SINGLE_INVERSE : inversion of 
                                         H + eS - 2*(Sc)(c^T*H*c+const)(Sc)^T
  Precond_solver : INVERSE_UPDATE
  stepsize       :    0.10000000                  energy_gap     :    0.10000000
  eps_taylor     :   0.10000E-15                  max_taylor     :             4
  ----------------------------------- OT ---------------------------------------

  Step     Update method      Time    Convergence         Total energy    Change
  ------------------------------------------------------------------------------
     1 OT DIIS     0.10E+00   47.1     0.00878059     -5549.7737306342 -5.55E+03
     2 OT DIIS     0.10E+00   12.1     0.00593821     -5611.2476941917 -6.15E+01
     3 OT DIIS     0.10E+00   11.7     0.00466205     -5651.1599184526 -3.99E+01
     4 OT DIIS     0.10E+00   11.5     0.00369288     -5673.8756068374 -2.27E+01
     5 OT DIIS     0.10E+00   11.5     0.00272378     -5694.1717531134 -2.03E+01
     6 OT DIIS     0.10E+00   11.5     0.00202636     -5707.9290729961 -1.38E+01
     7 OT DIIS     0.10E+00   11.5     0.00150711     -5717.3105177876 -9.38E+00
     8 OT DIIS     0.10E+00   11.5     0.00107230     -5724.1370830472 -6.83E+00
     9 OT DIIS     0.10E+00   11.5     0.00083367     -5727.4042467393 -3.27E+00
    10 OT DIIS     0.10E+00   11.5     0.00062208     -5729.9000459900 -2.50E+00
    11 OT DIIS     0.10E+00   11.6     0.00052710     -5730.8445679490 -9.45E-01
    12 OT DIIS     0.10E+00   11.5     0.00039454     -5732.0037044755 -1.16E+00
    13 OT DIIS     0.10E+00   11.6     0.00032440     -5732.5206179788 -5.17E-01
    14 OT DIIS     0.10E+00   11.4     0.00024901     -5733.0506702030 -5.30E-01
    15 OT DIIS     0.10E+00   11.6     0.00020902     -5733.2868356272 -2.36E-01
    16 OT DIIS     0.10E+00   11.6     0.00016773     -5733.5278181478 -2.41E-01
    17 OT DIIS     0.10E+00   11.6     0.00014537     -5733.6581742116 -1.30E-01
    18 OT DIIS     0.10E+00   11.5     0.00011532     -5733.8081134146 -1.50E-01
    19 OT DIIS     0.10E+00   11.4     0.00010263     -5733.8711506348 -6.30E-02
    20 OT DIIS     0.10E+00   11.5     0.00009022     -5733.9377494880 -6.66E-02
    21 OT DIIS     0.10E+00   11.5     0.00007868     -5734.0041037997 -6.64E-02
    22 OT DIIS     0.10E+00   11.5     0.00007239     -5734.0466399050 -4.25E-02
    23 OT DIIS     0.10E+00   11.6     0.00006512     -5734.0918267103 -4.52E-02
    24 OT DIIS     0.10E+00   11.5     0.00005989     -5734.1275017793 -3.57E-02
    25 OT DIIS     0.10E+00   11.6     0.00005484     -5734.1600997160 -3.26E-02
    26 OT DIIS     0.10E+00   11.5     0.00005142     -5734.1856145829 -2.55E-02
    27 OT DIIS     0.10E+00   11.4     0.00004743     -5734.2121896013 -2.66E-02
    28 OT DIIS     0.10E+00   11.4     0.00004454     -5734.2329797276 -2.08E-02
    29 OT DIIS     0.10E+00   11.5     0.00004042     -5734.2598546629 -2.69E-02
    30 OT DIIS     0.10E+00   11.6     0.00003819     -5734.2752740047 -1.54E-02
    31 OT DIIS     0.10E+00   11.6     0.00003567     -5734.2926511035 -1.74E-02
    32 OT DIIS     0.10E+00   11.6     0.00003373     -5734.3062130586 -1.36E-02
    33 OT DIIS     0.10E+00   11.5     0.00003172     -5734.3206779155 -1.45E-02
    34 OT DIIS     0.10E+00   11.4     0.00003008     -5734.3319429775 -1.13E-02
    35 OT DIIS     0.10E+00   11.4     0.00002844     -5734.3457674394 -1.38E-02
    36 OT DIIS     0.10E+00   11.5     0.00002660     -5734.3552393017 -9.47E-03
    37 OT DIIS     0.10E+00   11.6     0.00002583     -5734.3668208996 -1.16E-02
    38 OT DIIS     0.10E+00   11.6     0.00002415     -5734.3719651750 -5.14E-03
    39 OT SD       0.10E+00   11.6     0.00002389     -5734.3753894724 -3.42E-03
    40 OT DIIS     0.10E+00   11.5     0.00002338     -5734.3759578877 -5.68E-04
    41 OT DIIS     0.10E+00   11.4     0.00002268     -5734.3802272268 -4.27E-03
    42 OT DIIS     0.10E+00   11.5     0.00002205     -5734.3860253212 -5.80E-03
    43 OT DIIS     0.10E+00   11.6     0.00002098     -5734.3955814579 -9.56E-03
    44 OT DIIS     0.10E+00   11.6     0.00002006     -5734.4019000251 -6.32E-03
    45 OT DIIS     0.10E+00   11.6     0.00001937     -5734.4111992559 -9.30E-03
    46 OT DIIS     0.10E+00   11.6     0.00001863     -5734.4160086683 -4.81E-03
    47 OT DIIS     0.10E+00   11.5     0.00001835     -5734.4258077171 -9.80E-03
    48 OT DIIS     0.10E+00   11.5     0.00001820     -5734.4295382019 -3.73E-03
    49 OT DIIS     0.10E+00   11.4     0.00001651     -5734.4354474397 -5.91E-03
    50 OT DIIS     0.10E+00   11.5     0.00001749     -5734.4405572425 -5.11E-03
    51 OT DIIS     0.10E+00   11.6     0.00001562     -5734.4437801307 -3.22E-03
    52 OT DIIS     0.10E+00   11.6     0.00001699     -5734.4451483384 -1.37E-03
    53 OT DIIS     0.10E+00   11.5     0.00001555     -5734.4473095859 -2.16E-03
    54 OT DIIS     0.10E+00   11.4     0.00001553     -5734.4490085325 -1.70E-03
    55 OT SD       0.10E+00   11.4     0.00001413     -5734.4506792560 -1.67E-03
    56 OT DIIS     0.10E+00   11.5     0.00001400     -5734.4508795475 -2.00E-04
    57 OT DIIS     0.10E+00   11.5     0.00001367     -5734.4525921801 -1.71E-03
    58 OT DIIS     0.10E+00   11.6     0.00001325     -5734.4559933979 -3.40E-03
    59 OT DIIS     0.10E+00   11.7     0.00001288     -5734.4593223845 -3.33E-03
    60 OT DIIS     0.10E+00   11.5     0.00001262     -5734.4619854336 -2.66E-03
    61 OT DIIS     0.10E+00   11.5     0.00001206     -5734.4674491340 -5.46E-03
    62 OT DIIS     0.10E+00   11.5     0.00001162     -5734.4727874129 -5.34E-03
    63 OT DIIS     0.10E+00   11.4     0.00001121     -5734.4759949051 -3.21E-03
    64 OT DIIS     0.10E+00   11.4     0.00001232     -5734.4830350325 -7.04E-03
    65 OT DIIS     0.10E+00   11.6     0.00001068     -5734.4831319923 -9.70E-05
    66 OT DIIS     0.10E+00   11.5     0.00001042     -5734.4847317327 -1.60E-03
    67 OT DIIS     0.10E+00   11.5     0.00001008     -5734.4879267802 -3.20E-03
    68 OT DIIS     0.10E+00   11.5     0.00000991     -5734.4896730571 -1.75E-03
    69 OT DIIS     0.10E+00   11.4     0.00000952     -5734.4934143581 -3.74E-03
    70 OT DIIS     0.10E+00   11.5     0.00001044     -5734.4967453401 -3.33E-03
    71 OT DIIS     0.10E+00   11.6     0.00001172     -5734.4972898624 -5.45E-04
    72 OT DIIS     0.10E+00   11.6     0.00000884     -5734.4998186146 -2.53E-03
    73 OT DIIS     0.10E+00   11.6     0.00000935     -5734.5010960902 -1.28E-03
    74 OT DIIS     0.10E+00   11.6     0.00000834     -5734.5027274324 -1.63E-03
    75 OT DIIS     0.10E+00   11.6     0.00001088     -5734.5050489364 -2.32E-03
    76 OT SD       0.10E+00   11.5     0.00000917     -5734.5061934350 -1.14E-03
    77 OT SD       0.10E+00   11.5     0.00000842     -5734.5062740806 -8.06E-05
    78 OT DIIS     0.10E+00   11.4     0.00000810     -5734.5063440195 -6.99E-05
    79 OT DIIS     0.10E+00   11.6     0.00000763     -5734.5088431828 -2.50E-03
    80 OT DIIS     0.10E+00   11.6     0.00000838     -5734.5088899467 -4.68E-05
    81 OT DIIS     0.10E+00   11.5     0.00000729     -5734.5099577587 -1.07E-03
    82 OT DIIS     0.10E+00   11.5     0.00000730     -5734.5100352908 -7.75E-05
    83 OT DIIS     0.10E+00   11.4     0.00000710     -5734.5105026742 -4.67E-04
    84 OT DIIS     0.10E+00   11.5     0.00000673     -5734.5124221060 -1.92E-03
    85 OT DIIS     0.10E+00   11.5     0.00000669     -5734.5127412563 -3.19E-04
    86 OT DIIS     0.10E+00   11.6     0.00000658     -5734.5139602773 -1.22E-03
    87 OT DIIS     0.10E+00   11.6     0.00000656     -5734.5140113515 -5.11E-05
    88 OT SD       0.10E+00   11.6     0.00000691     -5734.5145049353 -4.94E-04
    89 OT DIIS     0.10E+00   11.7     0.00000661     -5734.5145517705 -4.68E-05
    90 OT DIIS     0.10E+00   11.7     0.00000631     -5734.5152178582 -6.66E-04
