 DBCSR| CPU Multiplication driver                                           XSMM (U)
 DBCSR| Multrec recursion limit                                              512 (U)
 DBCSR| Multiplication stack size                                           1000 (D)
 DBCSR| Maximum elements for images                                    UNLIMITED (U)
 DBCSR| Multiplicative factor virtual images                                   1 (U)
 DBCSR| Use multiplication densification                                       T (D)
 DBCSR| Multiplication size stacks                                             3 (U)
 DBCSR| Use memory pool for CPU allocation                                     F (U)
 DBCSR| Number of 3D layers                                               SINGLE (U)
 DBCSR| Use MPI memory allocation                                              F (U)
 DBCSR| Use RMA algorithm                                                      F (U)
 DBCSR| Use Communication thread                                               T (U)
 DBCSR| Communication thread load                                             30 (D)
 DBCSR| MPI: My process id                                                     0
 DBCSR| MPI: Number of processes                                               1
 DBCSR| OMP: Current number of threads                                        16
 DBCSR| OMP: Max number of threads                                            16
 DBCSR| Split modifier for TAS multiplication algorithm                  1.0E+00 (U)


  **** **** ******  **  PROGRAM STARTED AT               2026-01-21 16:12:55.486
 ***** ** ***  *** **   PROGRAM STARTED ON                          8df8661787e0
 **    ****   ******    PROGRAM STARTED BY                             <unknown>
 ***** **    ** ** **   PROGRAM PROCESS ID                                   678
  **** **  *******  **  PROGRAM STARTED IN                             /mnt/cp2k

 CP2K| version string:                 CP2K version 2026.1 (Development Version)
 CP2K| source code revision number:                                   4e96ea1a00
 CP2K| cp2kflags: omp libint fftw3 libxc elpa parallel scalapack mpi_f08 cosma a
 CP2K|            ce deepmd xsmm dbcsr_acc plumed2 spglib libdftd4 mctc-lib tbli
 CP2K|            ite sirius libvori libbqb libtorch mimic offload_cuda libvdwxc
 CP2K|            c hdf5 trexio libsmeagol greenx
 CP2K| is freely available from                            https://www.cp2k.org/
 CP2K| Program compiled at                                   2026-01-16 05:48:39
 CP2K| Program compiled on                                                      
 CP2K| Program compiled for                                               x86_64
 CP2K| Data directory path                     /opt/cp2k/install/share/cp2k/data
 CP2K| Input file name                                               geo_opt.inp

 GLOBAL| Force Environment number                                              1
 GLOBAL| Basis set file name                                    BASIS_MOLOPT_UZH
 GLOBAL| Potential file name                                       POTENTIAL_UZH
 GLOBAL| MM Potential file name                                     MM_POTENTIAL
 GLOBAL| Coordinate file name              conventional_cell_slab_020_L1_2x2.xyz
 GLOBAL| Method name                                                        CP2K
 GLOBAL| Project name                                         gypsum_slab_geoopt
 GLOBAL| Run type                                                        GEO_OPT
 GLOBAL| FFT library                                                       FFTW3
 GLOBAL| Diagonalization library                                            ELPA
 GLOBAL| Cholesky decomposition library                                ScaLAPACK
 GLOBAL| DGEMM library                                                      BLAS
 GLOBAL| Minimum number of eigenvectors for ELPA usage                        16
 GLOBAL| Orthonormality check for eigenvectors                          DISABLED
 GLOBAL| Matrix multiplication library                                     COSMA
 GLOBAL| All-to-all communication in single precision                          F
 GLOBAL| FFTs using library dependent lengths                                  F
 GLOBAL| Grid backend                                                       AUTO
 GLOBAL| Global print level                                                  LOW
 GLOBAL| MPI I/O enabled                                                       T
 GLOBAL| Total number of message passing processes                             1
 GLOBAL| Number of distributed systems (nodes)                                 1
 GLOBAL| Number of threads for this process                                   16
 GLOBAL| This output is from process                                           0
 GLOBAL| OpenMP stack size per thread (OMP_STACKSIZE)                        16M
 GLOBAL| CPU model name                           Intel(R) Core(TM) Ultra 7 265K
 GLOBAL| CPUID                                                              1002

 MEMORY| system memory details [Kb]
 MEMORY|                        rank 0           min           max       average
 MEMORY| MemTotal             32486564      32486564      32486564      32486564
 MEMORY| MemFree               9542716       9542716       9542716       9542716
 MEMORY| Buffers                 38824         38824         38824         38824
 MEMORY| Cached                2435880       2435880       2435880       2435880
 MEMORY| Slab                   192992        192992        192992        192992
 MEMORY| SReclaimable            73020         73020         73020         73020
 MEMORY| MemLikelyFree        12090440      12090440      12090440      12090440


 GENERATE|  Preliminary Number of Bonds generated:                             0
 GENERATE|  Achieved consistency in connectivity generation.

 *******************************************************************************
 *******************************************************************************
 **                                                                           **
 **     #####                         ##              ##                      **
 **    ##   ##            ##          ##              ##                      **
 **   ##     ##                       ##            ######                    **
 **   ##     ##  ##   ##  ##   #####  ##  ##   ####   ##    #####    #####    **
 **   ##     ##  ##   ##  ##  ##      ## ##   ##      ##   ##   ##  ##   ##   **
 **   ##  ## ##  ##   ##  ##  ##      ####     ###    ##   ######   ######    **
 **    ##  ###   ##   ##  ##  ##      ## ##      ##   ##   ##       ##        **
 **     #######   #####   ##   #####  ##  ##  ####    ##    #####   ##        **
 **           ##                                                    ##        **
 **                                                                           **
 **                                                ... make the atoms dance   **
 **                                                                           **
 **            Copyright (C) by CP2K developers group (2000-2026)             **
 **                      J. Chem. Phys. 152, 194103 (2020)                    **
 **                                                                           **
 *******************************************************************************


 TOTAL NUMBERS AND MAXIMUM NUMBERS

  Total number of            - Atomic kinds:                                   4
                             - Atoms:                                        360
                             - Shell sets:                                   360
                             - Shells:                                      1896
                             - Primitive Cartesian functions:               1800
                             - Cartesian basis functions:                   5136
                             - Spherical basis functions:                   4776

  Maximum angular momentum of- Orbital basis functions:                        2
                             - Local part of the GTH pseudopotential:          2
                             - Non-local part of the GTH pseudopotential:      3


 SCF PARAMETERS         Density guess:                                    ATOMIC
                        --------------------------------------------------------
                        max_scf:                                             120
                        max_scf_history:                                       0
                        max_diis:                                              4
                        --------------------------------------------------------
                        eps_scf:                                        1.00E-06
                        eps_scf_history:                                0.00E+00
                        eps_diis:                                       0.00E+00
                        eps_eigval:                                     1.00E-05
                        --------------------------------------------------------
                        level_shift [a.u.]:                             0.000000
                        --------------------------------------------------------
                        Outer loop SCF in use 
                        No variables optimised in outer loop
                        eps_scf                                         1.00E-06
                        max_scf                                               20
                        No outer loop optimization
                        step_size                                       5.00E-01

 BFGS| Use rational function optimization for step estimation:                NO
 BFGS| Use model Hessian for initial guess:                                  YES
 BFGS| Restart Hessian:                                                       NO
 BFGS| Trust radius:                                                       0.472

 *******************************************************************************
 ***                     STARTING GEOMETRY OPTIMIZATION                      ***
 ***                                   BFGS                                  ***
 *******************************************************************************

 Extrapolation method: initial_guess

 Spin 1

 Number of electrons:                                                       1056
 Number of occupied orbitals:                                               1056
 Number of molecular orbitals:                                              1056

 Spin 2

 Number of electrons:                                                       1056
 Number of occupied orbitals:                                               1056
 Number of molecular orbitals:                                              1056

 Number of orbital functions:                                               4776
 Number of independent orbital functions:                                   4776


 SCF WAVEFUNCTION OPTIMIZATION

  ----------------------------------- OT ---------------------------------------
  Minimizer      : DIIS                : direct inversion
                                         in the iterative subspace
                                         using   7 DIIS vectors
                                         safer DIIS on
  Preconditioner : FULL_SINGLE_INVERSE : inversion of 
                                         H + eS - 2*(Sc)(c^T*H*c+const)(Sc)^T
  Precond_solver : INVERSE_UPDATE
  stepsize       :    0.10000000                  energy_gap     :    0.10000000
  eps_taylor     :   0.10000E-15                  max_taylor     :             4
  ----------------------------------- OT ---------------------------------------

  Step     Update method      Time    Convergence         Total energy    Change
  ------------------------------------------------------------------------------
     1 OT DIIS     0.10E+00   47.1     0.00878059     -5549.7737306342 -5.55E+03
     2 OT DIIS     0.10E+00   12.1     0.00593821     -5611.2476941917 -6.15E+01
     3 OT DIIS     0.10E+00   11.7     0.00466205     -5651.1599184526 -3.99E+01
     4 OT DIIS     0.10E+00   11.5     0.00369288     -5673.8756068374 -2.27E+01
     5 OT DIIS     0.10E+00   11.5     0.00272378     -5694.1717531134 -2.03E+01
     6 OT DIIS     0.10E+00   11.5     0.00202636     -5707.9290729961 -1.38E+01
     7 OT DIIS     0.10E+00   11.5     0.00150711     -5717.3105177876 -9.38E+00
     8 OT DIIS     0.10E+00   11.5     0.00107230     -5724.1370830472 -6.83E+00
     9 OT DIIS     0.10E+00   11.5     0.00083367     -5727.4042467393 -3.27E+00
    10 OT DIIS     0.10E+00   11.5     0.00062208     -5729.9000459900 -2.50E+00
    11 OT DIIS     0.10E+00   11.6     0.00052710     -5730.8445679490 -9.45E-01
    12 OT DIIS     0.10E+00   11.5     0.00039454     -5732.0037044755 -1.16E+00
    13 OT DIIS     0.10E+00   11.6     0.00032440     -5732.5206179788 -5.17E-01
    14 OT DIIS     0.10E+00   11.4     0.00024901     -5733.0506702030 -5.30E-01
    15 OT DIIS     0.10E+00   11.6     0.00020902     -5733.2868356272 -2.36E-01
    16 OT DIIS     0.10E+00   11.6     0.00016773     -5733.5278181478 -2.41E-01
    17 OT DIIS     0.10E+00   11.6     0.00014537     -5733.6581742116 -1.30E-01
    18 OT DIIS     0.10E+00   11.5     0.00011532     -5733.8081134146 -1.50E-01
    19 OT DIIS     0.10E+00   11.4     0.00010263     -5733.8711506348 -6.30E-02
    20 OT DIIS     0.10E+00   11.5     0.00009022     -5733.9377494880 -6.66E-02
    21 OT DIIS     0.10E+00   11.5     0.00007868     -5734.0041037997 -6.64E-02
    22 OT DIIS     0.10E+00   11.5     0.00007239     -5734.0466399050 -4.25E-02
    23 OT DIIS     0.10E+00   11.6     0.00006512     -5734.0918267103 -4.52E-02
    24 OT DIIS     0.10E+00   11.5     0.00005989     -5734.1275017793 -3.57E-02
    25 OT DIIS     0.10E+00   11.6     0.00005484     -5734.1600997160 -3.26E-02
    26 OT DIIS     0.10E+00   11.5     0.00005142     -5734.1856145829 -2.55E-02
    27 OT DIIS     0.10E+00   11.4     0.00004743     -5734.2121896013 -2.66E-02
    28 OT DIIS     0.10E+00   11.4     0.00004454     -5734.2329797276 -2.08E-02
    29 OT DIIS     0.10E+00   11.5     0.00004042     -5734.2598546629 -2.69E-02
    30 OT DIIS     0.10E+00   11.6     0.00003819     -5734.2752740047 -1.54E-02
    31 OT DIIS     0.10E+00   11.6     0.00003567     -5734.2926511035 -1.74E-02
    32 OT DIIS     0.10E+00   11.6     0.00003373     -5734.3062130586 -1.36E-02
    33 OT DIIS     0.10E+00   11.5     0.00003172     -5734.3206779155 -1.45E-02
    34 OT DIIS     0.10E+00   11.4     0.00003008     -5734.3319429775 -1.13E-02
    35 OT DIIS     0.10E+00   11.4     0.00002844     -5734.3457674394 -1.38E-02
    36 OT DIIS     0.10E+00   11.5     0.00002660     -5734.3552393017 -9.47E-03
    37 OT DIIS     0.10E+00   11.6     0.00002583     -5734.3668208996 -1.16E-02
    38 OT DIIS     0.10E+00   11.6     0.00002415     -5734.3719651750 -5.14E-03
    39 OT SD       0.10E+00   11.6     0.00002389     -5734.3753894724 -3.42E-03
    40 OT DIIS     0.10E+00   11.5     0.00002338     -5734.3759578877 -5.68E-04
    41 OT DIIS     0.10E+00   11.4     0.00002268     -5734.3802272268 -4.27E-03
    42 OT DIIS     0.10E+00   11.5     0.00002205     -5734.3860253212 -5.80E-03
    43 OT DIIS     0.10E+00   11.6     0.00002098     -5734.3955814579 -9.56E-03
    44 OT DIIS     0.10E+00   11.6     0.00002006     -5734.4019000251 -6.32E-03
    45 OT DIIS     0.10E+00   11.6     0.00001937     -5734.4111992559 -9.30E-03
    46 OT DIIS     0.10E+00   11.6     0.00001863     -5734.4160086683 -4.81E-03
    47 OT DIIS     0.10E+00   11.5     0.00001835     -5734.4258077171 -9.80E-03
    48 OT DIIS     0.10E+00   11.5     0.00001820     -5734.4295382019 -3.73E-03
    49 OT DIIS     0.10E+00   11.4     0.00001651     -5734.4354474397 -5.91E-03
    50 OT DIIS     0.10E+00   11.5     0.00001749     -5734.4405572425 -5.11E-03
    51 OT DIIS     0.10E+00   11.6     0.00001562     -5734.4437801307 -3.22E-03
    52 OT DIIS     0.10E+00   11.6     0.00001699     -5734.4451483384 -1.37E-03
    53 OT DIIS     0.10E+00   11.5     0.00001555     -5734.4473095859 -2.16E-03
    54 OT DIIS     0.10E+00   11.4     0.00001553     -5734.4490085325 -1.70E-03
    55 OT SD       0.10E+00   11.4     0.00001413     -5734.4506792560 -1.67E-03
    56 OT DIIS     0.10E+00   11.5     0.00001400     -5734.4508795475 -2.00E-04
    57 OT DIIS     0.10E+00   11.5     0.00001367     -5734.4525921801 -1.71E-03
    58 OT DIIS     0.10E+00   11.6     0.00001325     -5734.4559933979 -3.40E-03
    59 OT DIIS     0.10E+00   11.7     0.00001288     -5734.4593223845 -3.33E-03
    60 OT DIIS     0.10E+00   11.5     0.00001262     -5734.4619854336 -2.66E-03
    61 OT DIIS     0.10E+00   11.5     0.00001206     -5734.4674491340 -5.46E-03
    62 OT DIIS     0.10E+00   11.5     0.00001162     -5734.4727874129 -5.34E-03
    63 OT DIIS     0.10E+00   11.4     0.00001121     -5734.4759949051 -3.21E-03
    64 OT DIIS     0.10E+00   11.4     0.00001232     -5734.4830350325 -7.04E-03
    65 OT DIIS     0.10E+00   11.6     0.00001068     -5734.4831319923 -9.70E-05
    66 OT DIIS     0.10E+00   11.5     0.00001042     -5734.4847317327 -1.60E-03
    67 OT DIIS     0.10E+00   11.5     0.00001008     -5734.4879267802 -3.20E-03
    68 OT DIIS     0.10E+00   11.5     0.00000991     -5734.4896730571 -1.75E-03
    69 OT DIIS     0.10E+00   11.4     0.00000952     -5734.4934143581 -3.74E-03
    70 OT DIIS     0.10E+00   11.5     0.00001044     -5734.4967453401 -3.33E-03
    71 OT DIIS     0.10E+00   11.6     0.00001172     -5734.4972898624 -5.45E-04
    72 OT DIIS     0.10E+00   11.6     0.00000884     -5734.4998186146 -2.53E-03
    73 OT DIIS     0.10E+00   11.6     0.00000935     -5734.5010960902 -1.28E-03
    74 OT DIIS     0.10E+00   11.6     0.00000834     -5734.5027274324 -1.63E-03
    75 OT DIIS     0.10E+00   11.6     0.00001088     -5734.5050489364 -2.32E-03
    76 OT SD       0.10E+00   11.5     0.00000917     -5734.5061934350 -1.14E-03
    77 OT SD       0.10E+00   11.5     0.00000842     -5734.5062740806 -8.06E-05
    78 OT DIIS     0.10E+00   11.4     0.00000810     -5734.5063440195 -6.99E-05
    79 OT DIIS     0.10E+00   11.6     0.00000763     -5734.5088431828 -2.50E-03
    80 OT DIIS     0.10E+00   11.6     0.00000838     -5734.5088899467 -4.68E-05
    81 OT DIIS     0.10E+00   11.5     0.00000729     -5734.5099577587 -1.07E-03
    82 OT DIIS     0.10E+00   11.5     0.00000730     -5734.5100352908 -7.75E-05
    83 OT DIIS     0.10E+00   11.4     0.00000710     -5734.5105026742 -4.67E-04
    84 OT DIIS     0.10E+00   11.5     0.00000673     -5734.5124221060 -1.92E-03
    85 OT DIIS     0.10E+00   11.5     0.00000669     -5734.5127412563 -3.19E-04
    86 OT DIIS     0.10E+00   11.6     0.00000658     -5734.5139602773 -1.22E-03
    87 OT DIIS     0.10E+00   11.6     0.00000656     -5734.5140113515 -5.11E-05
    88 OT SD       0.10E+00   11.6     0.00000691     -5734.5145049353 -4.94E-04
    89 OT DIIS     0.10E+00   11.7     0.00000661     -5734.5145517705 -4.68E-05
    90 OT DIIS     0.10E+00   11.7     0.00000631     -5734.5152178582 -6.66E-04
    91 OT DIIS     0.10E+00   11.6     0.00000621     -5734.5161370578 -9.19E-04
    92 OT DIIS     0.10E+00   11.7     0.00000612     -5734.5170680510 -9.31E-04
    93 OT DIIS     0.10E+00   12.2     0.00000621     -5734.5179081694 -8.40E-04
    94 OT DIIS     0.10E+00   11.9     0.00000597     -5734.5188411786 -9.33E-04
    95 OT DIIS     0.10E+00   12.1     0.00000667     -5734.5200848797 -1.24E-03
    96 OT DIIS     0.10E+00   11.9     0.00000577     -5734.5209831714 -8.98E-04
    97 OT DIIS     0.10E+00   12.0     0.00000583     -5734.5214533709 -4.70E-04
    98 OT DIIS     0.10E+00   12.0     0.00000565     -5734.5223584639 -9.05E-04
    99 OT DIIS     0.10E+00   11.9     0.00000553     -5734.5240324979 -1.67E-03
   100 OT DIIS     0.10E+00   12.0     0.00000549     -5734.5242396447 -2.07E-04
   101 OT DIIS     0.10E+00   12.3     0.00000537     -5734.5254234005 -1.18E-03
   102 OT DIIS     0.10E+00   12.0     0.00000531     -5734.5261222621 -6.99E-04
   103 OT DIIS     0.10E+00   11.9     0.00000523     -5734.5271545887 -1.03E-03
   104 OT DIIS     0.10E+00   11.8     0.00000538     -5734.5272318123 -7.72E-05
   105 OT DIIS     0.10E+00   11.8     0.00000510     -5734.5278662115 -6.34E-04
   106 OT SD       0.10E+00   11.8     0.00000516     -5734.5294691279 -1.60E-03
   107 OT DIIS     0.10E+00   11.9     0.00000502     -5734.5294954935 -2.64E-05
   108 OT DIIS     0.10E+00   11.8     0.00000491     -5734.5302478785 -7.52E-04
   109 OT DIIS     0.10E+00   11.9     0.00000483     -5734.5309606924 -7.13E-04
   110 OT DIIS     0.10E+00   11.8     0.00000472     -5734.5318240761 -8.63E-04
   111 OT DIIS     0.10E+00   11.8     0.00000466     -5734.5328181593 -9.94E-04
   112 OT DIIS     0.10E+00   11.8     0.00000474     -5734.5332300502 -4.12E-04
   113 OT DIIS     0.10E+00   11.9     0.00000451     -5734.5337881967 -5.58E-04
   114 OT DIIS     0.10E+00   11.9     0.00000444     -5734.5344144242 -6.26E-04
   115 OT DIIS     0.10E+00   12.0     0.00000469     -5734.5356066441 -1.19E-03
   116 OT SD       0.10E+00   11.9     0.00000447     -5734.5360702561 -4.64E-04
   117 OT SD       0.10E+00   11.9     0.00000433     -5734.5360900061 -1.97E-05
   118 OT DIIS     0.10E+00   12.0     0.00000427     -5734.5361087339 -1.87E-05
   119 OT DIIS     0.10E+00   11.6     0.00000457     -5734.5364020804 -2.93E-04
   120 OT DIIS     0.10E+00   11.6     0.00000436     -5734.5374416338 -1.04E-03

  Leaving inner SCF loop after reaching   120 steps.


  Electronic density on regular grids:      -2111.9999999843        0.0000000157
  Core density on regular grids:             2111.9999999991       -0.0000000009
  Total charge density on r-space grids:        0.0000000148
  Total charge density g-space grids:           0.0000000148

  Overlap energy of the core charge distribution:               0.02247140509388
  Self energy of the core charge distribution:             -13908.04008471225097
  Core Hamiltonian energy:                                   3762.52289407946228
  Hartree energy:                                            5555.47730675118237
  Exchange-correlation energy:                              -1141.50602608510235
  Dispersion energy:                                           -3.01400307214614

  Total energy:                                             -5734.53744163375995

  outer SCF iter =    1 RMS gradient =   0.44E-05 energy =      -5734.5374416338

  ----------------------------------- OT ---------------------------------------
  Minimizer      : DIIS                : direct inversion
                                         in the iterative subspace
                                         using   7 DIIS vectors
                                         safer DIIS on
  Preconditioner : FULL_SINGLE_INVERSE : inversion of 
                                         H + eS - 2*(Sc)(c^T*H*c+const)(Sc)^T
  Precond_solver : INVERSE_UPDATE
  stepsize       :    0.10000000                  energy_gap     :    0.10000000
  eps_taylor     :   0.10000E-15                  max_taylor     :             4
  ----------------------------------- OT ---------------------------------------

  Step     Update method      Time    Convergence         Total energy    Change
  ------------------------------------------------------------------------------


     Lanczos converged:  F threshold:   0.100E-02
     Est. extremal eigenvalues:    0.203E+02   0.461E-01
     Est. condition number :    0.441E+03
     Hotelling iter   1 1.00000000   0.991E+00       2.636   165290.747
     Hotelling iter   2 1.00000000   0.966E+00       1.503   289929.331
     Hotelling iter   3 1.00000000   0.874E+00       1.561   279204.600
     Hotelling iter   4 1.00000000   0.602E+00       1.485   293508.217
     Hotelling iter   5 1.00000000   0.185E+00       1.488   292900.761



     Lanczos converged:  F threshold:   0.100E-02
     Est. extremal eigenvalues:    0.203E+02   0.461E-01
     Est. condition number :    0.441E+03
     Hotelling iter   1 1.00000000   0.991E+00       2.434   179014.246
     Hotelling iter   2 1.00000000   0.966E+00       1.370   317998.455
     Hotelling iter   3 1.00000000   0.874E+00       1.365   319166.750
     Hotelling iter   4 1.00000000   0.602E+00       1.347   323626.263
     Hotelling iter   5 1.00000000   0.185E+00       1.410   309136.799

     1 OT DIIS     0.10E+00   58.6     0.00002417     -5734.5375316854 -9.01E-05
     2 OT DIIS     0.10E+00   11.2     0.00002003     -5734.5380446981 -5.13E-04
     3 OT DIIS     0.10E+00   11.2     0.00001820     -5734.5385059709 -4.61E-04
     4 OT DIIS     0.10E+00   11.1     0.00001553     -5734.5390596025 -5.54E-04
     5 OT DIIS     0.10E+00   11.1     0.00001384     -5734.5396635253 -6.04E-04
     6 OT DIIS     0.10E+00   10.9     0.00001334     -5734.5401100053 -4.46E-04
     7 OT DIIS     0.10E+00   11.2     0.00001265     -5734.5406300484 -5.20E-04
     8 OT DIIS     0.10E+00   11.3     0.00001218     -5734.5412323817 -6.02E-04
     9 OT DIIS     0.10E+00   11.3     0.00001174     -5734.5419566460 -7.24E-04
    10 OT DIIS     0.10E+00   11.1     0.00001124     -5734.5428373327 -8.81E-04
    11 OT DIIS     0.10E+00   11.1     0.00001082     -5734.5436342860 -7.97E-04
    12 OT DIIS     0.10E+00   11.1     0.00001045     -5734.5444656802 -8.31E-04
    13 OT DIIS     0.10E+00   11.8     0.00001016     -5734.5451165166 -6.51E-04
    14 OT DIIS     0.10E+00   11.0     0.00000977     -5734.5459345863 -8.18E-04
    15 OT DIIS     0.10E+00   11.0     0.00000948     -5734.5465596058 -6.25E-04
    16 OT DIIS     0.10E+00   11.1     0.00000907     -5734.5473253336 -7.66E-04
    17 OT DIIS     0.10E+00   11.0     0.00000874     -5734.5480270106 -7.02E-04
    18 OT DIIS     0.10E+00   11.0     0.00000850     -5734.5485347510 -5.08E-04
    19 OT DIIS     0.10E+00   11.0     0.00000826     -5734.5489585852 -4.24E-04
    20 OT DIIS     0.10E+00   11.4     0.00000805     -5734.5493713192 -4.13E-04
    21 OT DIIS     0.10E+00   24.3     0.00000790     -5734.5496543876 -2.83E-04
    22 OT DIIS     0.10E+00   24.4     0.00000771     -5734.5499598420 -3.05E-04
    23 OT DIIS     0.10E+00   22.1     0.00000760     -5734.5501748325 -2.15E-04
    24 OT DIIS     0.10E+00   20.5     0.00000745     -5734.5503935020 -2.19E-04
    25 OT DIIS     0.10E+00   19.5     0.00000734     -5734.5505836894 -1.90E-04
    26 OT DIIS     0.10E+00   20.3     0.00000725     -5734.5507395132 -1.56E-04
    27 OT DIIS     0.10E+00   21.0     0.00000717     -5734.5508859332 -1.46E-04
    28 OT DIIS     0.10E+00   17.3     0.00000709     -5734.5510458058 -1.60E-04
    29 OT DIIS     0.10E+00   20.0     0.00000703     -5734.5511688253 -1.23E-04
    30 OT DIIS     0.10E+00   16.9     0.00000697     -5734.5512961126 -1.27E-04
    31 OT DIIS     0.10E+00   25.4     0.00000692     -5734.5514159138 -1.20E-04
    32 OT DIIS     0.10E+00   22.4     0.00000685     -5734.5515561457 -1.40E-04
    33 OT DIIS     0.10E+00   18.5     0.00000679     -5734.5517113478 -1.55E-04
    34 OT DIIS     0.10E+00   22.6     0.00000673     -5734.5518730601 -1.62E-04
    35 OT DIIS     0.10E+00   19.6     0.00000666     -5734.5520419356 -1.69E-04
    36 OT DIIS     0.10E+00   19.2     0.00000659     -5734.5522288803 -1.87E-04
    37 OT DIIS     0.10E+00   20.8     0.00000653     -5734.5524001560 -1.71E-04
    38 OT DIIS     0.10E+00   17.8     0.00000646     -5734.5525901978 -1.90E-04
    39 OT DIIS     0.10E+00   26.1     0.00000638     -5734.5527867128 -1.97E-04
    40 OT DIIS     0.10E+00   22.2     0.00000629     -5734.5529931371 -2.06E-04
    41 OT DIIS     0.10E+00   22.2     0.00000620     -5734.5531890030 -1.96E-04
    42 OT DIIS     0.10E+00   18.0     0.00000612     -5734.5533678156 -1.79E-04
    43 OT DIIS     0.10E+00   21.3     0.00000604     -5734.5535402725 -1.72E-04
    44 OT DIIS     0.10E+00   21.7     0.00000596     -5734.5537039541 -1.64E-04
    45 OT DIIS     0.10E+00   21.4     0.00000589     -5734.5538371299 -1.33E-04
    46 OT DIIS     0.10E+00   20.2     0.00000583     -5734.5539536683 -1.17E-04
    47 OT DIIS     0.10E+00   23.2     0.00000577     -5734.5540621230 -1.08E-04
    48 OT DIIS     0.10E+00   18.2     0.00000571     -5734.5541643729 -1.02E-04
    49 OT DIIS     0.10E+00   21.1     0.00000566     -5734.5542534286 -8.91E-05
    50 OT DIIS     0.10E+00   21.0     0.00000562     -5734.5543330636 -7.96E-05
    51 OT DIIS     0.10E+00   17.1     0.00000558     -5734.5544101214 -7.71E-05
    52 OT DIIS     0.10E+00   21.6     0.00000554     -5734.5544844461 -7.43E-05
    53 OT DIIS     0.10E+00   22.5     0.00000551     -5734.5545580594 -7.36E-05
    54 OT DIIS     0.10E+00   21.8     0.00000548     -5734.5546309737 -7.29E-05
    55 OT DIIS     0.10E+00   17.8     0.00000545     -5734.5547090237 -7.80E-05
    56 OT DIIS     0.10E+00   21.8     0.00000541     -5734.5547914173 -8.24E-05
    57 OT DIIS     0.10E+00   19.4     0.00000538     -5734.5548778314 -8.64E-05
    58 OT DIIS     0.10E+00   21.1     0.00000535     -5734.5549643048 -8.65E-05
    59 OT DIIS     0.10E+00   21.8     0.00000532     -5734.5550552801 -9.10E-05
    60 OT DIIS     0.10E+00   21.6     0.00000530     -5734.5551391942 -8.39E-05
    61 OT DIIS     0.10E+00   21.5     0.00000528     -5734.5552069601 -6.78E-05
    62 OT DIIS     0.10E+00   19.1     0.00000527     -5734.5552591889 -5.22E-05
    63 OT DIIS     0.10E+00   29.4     0.00000527     -5734.5552912505 -3.21E-05
    64 OT SD       0.10E+00   20.3     0.00000527     -5734.5553069183 -1.57E-05
    65 OT SD       0.10E+00   20.1     0.00000528     -5734.5553349670 -2.80E-05
    66 OT SD       0.10E+00   18.7     0.00000529     -5734.5553630887 -2.81E-05
    67 OT SD       0.10E+00   18.3     0.00000530     -5734.5553913277 -2.82E-05
    68 OT DIIS     0.10E+00   18.8     0.00000532     -5734.5554197332 -2.84E-05
    69 OT DIIS     0.10E+00   18.8     0.00000512     -5734.5554714430 -5.17E-05
    70 OT DIIS     0.10E+00   18.4     0.00000510     -5734.5555697981 -9.84E-05
    71 OT DIIS     0.10E+00   18.7     0.00000493     -5734.5562486787 -6.79E-04
    72 OT DIIS     0.10E+00   18.4     0.00000490     -5734.5562541303 -5.45E-06
    73 OT DIIS     0.10E+00   21.1     0.00000501     -5734.5571893064 -9.35E-04
    74 OT DIIS     0.10E+00   22.0     0.00000489     -5734.5573190014 -1.30E-04
    75 OT DIIS     0.10E+00   20.4     0.00000447     -5734.5575038351 -1.85E-04
    76 OT DIIS     0.10E+00   18.5     0.00000423     -5734.5579508326 -4.47E-04
    77 OT DIIS     0.10E+00   25.8     0.00000453     -5734.5583991419 -4.48E-04
    78 OT DIIS     0.10E+00   18.2     0.00000407     -5734.5585002704 -1.01E-04
    79 OT DIIS     0.10E+00   20.9     0.00000408     -5734.5585438122 -4.35E-05
    80 OT DIIS     0.10E+00   22.4     0.00000403     -5734.5585826388 -3.88E-05
    81 OT SD       0.10E+00   24.3     0.00000405     -5734.5586105175 -2.79E-05
    82 OT DIIS     0.10E+00   22.0     0.00000407     -5734.5586270605 -1.65E-05
    83 OT SD       0.10E+00   20.5     0.00000403     -5734.5586407958 -1.37E-05
    84 OT DIIS     0.10E+00   21.7     0.00000404     -5734.5586569857 -1.62E-05
    85 OT DIIS     0.10E+00   20.8     0.00000394     -5734.5587317504 -7.48E-05
    86 OT DIIS     0.10E+00   19.2     0.00000390     -5734.5587921842 -6.04E-05
    87 OT DIIS     0.10E+00   20.2     0.00000378     -5734.5588390138 -4.68E-05
    88 OT DIIS     0.10E+00   22.1     0.00000371     -5734.5589212063 -8.22E-05
    89 OT DIIS     0.10E+00   21.1     0.00000369     -5734.5589217258 -5.19E-07
    90 OT DIIS     0.10E+00   19.1     0.00000369     -5734.5589408568 -1.91E-05
    91 OT SD       0.10E+00   20.0     0.00000369     -5734.5589538541 -1.30E-05
    92 OT SD       0.10E+00   21.9     0.00000370     -5734.5589675994 -1.37E-05
    93 OT SD       0.10E+00   17.4     0.00000372     -5734.5589814570 -1.39E-05
    94 OT SD       0.10E+00   20.0     0.00000375     -5734.5589954693 -1.40E-05
    95 OT SD       0.10E+00   23.8     0.00000378     -5734.5590096822 -1.42E-05
    96 OT SD       0.10E+00   21.3     0.00000382     -5734.5590241468 -1.45E-05
    97 OT DIIS     0.10E+00   19.0     0.00000387     -5734.5590389210 -1.48E-05
    98 OT DIIS     0.10E+00   20.5     0.00000345     -5734.5590788140 -3.99E-05
    99 OT DIIS     0.10E+00   19.1     0.00000342     -5734.5591168371 -3.80E-05
   100 OT DIIS     0.10E+00   20.6     0.00000337     -5734.5592172024 -1.00E-04
   101 OT DIIS     0.10E+00   19.4     0.00000335     -5734.5592761674 -5.90E-05
   102 OT DIIS     0.10E+00   18.1     0.00000330     -5734.5594177342 -1.42E-04
   103 OT DIIS     0.10E+00   18.7     0.00000328     -5734.5595070378 -8.93E-05
   104 OT DIIS     0.10E+00   19.8     0.00000323     -5734.5596247347 -1.18E-04
   105 OT DIIS     0.10E+00   19.8     0.00000320     -5734.5597126975 -8.80E-05
   106 OT DIIS     0.10E+00   18.3     0.00000318     -5734.5598055683 -9.29E-05
   107 OT DIIS     0.10E+00   18.4     0.00000316     -5734.5598844175 -7.88E-05
   108 OT DIIS     0.10E+00   18.7     0.00000315     -5734.5599604546 -7.60E-05
   109 OT SD       0.10E+00   17.4     0.00000315     -5734.5599919312 -3.15E-05
   110 OT DIIS     0.10E+00   18.3     0.00000315     -5734.5600019159 -9.98E-06
   111 OT DIIS     0.10E+00   17.5     0.00000314     -5734.5600055573 -3.64E-06
   112 OT DIIS     0.10E+00   20.5     0.00000313     -5734.5600535367 -4.80E-05
   113 OT DIIS     0.10E+00   20.2     0.00000311     -5734.5601351836 -8.16E-05
   114 OT DIIS     0.10E+00   19.6     0.00000307     -5734.5602744092 -1.39E-04
   115 OT DIIS     0.10E+00   21.1     0.00000305     -5734.5604061691 -1.32E-04
   116 OT DIIS     0.10E+00   19.3     0.00000305     -5734.5606087466 -2.03E-04
   117 OT DIIS     0.10E+00   17.1     0.00000303     -5734.5606489101 -4.02E-05
   118 OT DIIS     0.10E+00   21.1     0.00000307     -5734.5607586117 -1.10E-04
   119 OT DIIS     0.10E+00   19.2     0.00000298     -5734.5608535444 -9.49E-05
   120 OT DIIS     0.10E+00   19.7     0.00000303     -5734.5608939797 -4.04E-05

  Leaving inner SCF loop after reaching   120 steps.


  Electronic density on regular grids:      -2111.9999999842        0.0000000158
  Core density on regular grids:             2111.9999999991       -0.0000000009
  Total charge density on r-space grids:        0.0000000149
  Total charge density g-space grids:           0.0000000149

  Overlap energy of the core charge distribution:               0.02247140509388
  Self energy of the core charge distribution:             -13908.04008471225097
  Core Hamiltonian energy:                                   3762.40271614989388
  Hartree energy:                                            5555.55709173566720
  Exchange-correlation energy:                              -1141.48908548599297
  Dispersion energy:                                           -3.01400307214614

  Total energy:                                             -5734.56089397973392

  outer SCF iter =    2 RMS gradient =   0.30E-05 energy =      -5734.5608939797

  ----------------------------------- OT ---------------------------------------
  Minimizer      : DIIS                : direct inversion
                                         in the iterative subspace
                                         using   7 DIIS vectors
                                         safer DIIS on
  Preconditioner : FULL_SINGLE_INVERSE : inversion of 
                                         H + eS - 2*(Sc)(c^T*H*c+const)(Sc)^T
  Precond_solver : INVERSE_UPDATE
  stepsize       :    0.10000000                  energy_gap     :    0.10000000
  eps_taylor     :   0.10000E-15                  max_taylor     :             4
  ----------------------------------- OT ---------------------------------------

  Step     Update method      Time    Convergence         Total energy    Change
  ------------------------------------------------------------------------------


     Lanczos converged:  T threshold:   0.100E-02
     Est. extremal eigenvalues:    0.658E+01   0.108E+00
     Est. condition number :    0.610E+02
     Hotelling iter   1 1.00000000   0.940E+00       4.095   106416.929
     Hotelling iter   2 1.00000000   0.785E+00       2.200   198068.403
     Hotelling iter   3 1.00000000   0.418E+00       1.521   286554.683
     Hotelling iter   4 1.00000000   0.699E-01       2.050   212526.334



     Lanczos converged:  T threshold:   0.100E-02
     Est. extremal eigenvalues:    0.659E+01   0.108E+00
     Est. condition number :    0.611E+02
     Hotelling iter   1 1.00000000   0.940E+00       4.140   105257.388
     Hotelling iter   2 1.00000000   0.786E+00       1.663   261980.310
     Hotelling iter   3 1.00000000   0.419E+00       1.807   241166.079
     Hotelling iter   4 1.00000000   0.701E-01       1.665   261748.473

     1 OT DIIS     0.10E+00   80.6     0.00000357     -5734.5608965540 -2.57E-06
     2 OT DIIS     0.10E+00   16.2     0.00000364     -5734.5609089713 -1.24E-05
     3 OT SD       0.10E+00   15.4     0.00000356     -5734.5609139262 -4.95E-06
     4 OT SD       0.10E+00   16.6     0.00000362     -5734.5609267720 -1.28E-05
     5 OT SD       0.10E+00   18.6     0.00000370     -5734.5609399813 -1.32E-05
     6 OT SD       0.10E+00   17.9     0.00000388     -5734.5609535721 -1.36E-05
     7 OT SD       0.10E+00   17.1     0.00000439     -5734.5609673047 -1.37E-05
     8 OT SD       0.10E+00   17.8     0.00000604     -5734.5609797131 -1.24E-05
     9 OT SD       0.10E+00   17.6     0.00001058     -5734.5609836460 -3.93E-06
    10 OT DIIS     0.10E+00   17.7     0.00002133     -5734.5609457584  3.79E-05
    11 OT DIIS     0.10E+00   17.2     0.00000326     -5734.5609160889  2.97E-05
    12 OT SD       0.10E+00   17.5     0.00000327     -5734.5609186506 -2.56E-06
    13 OT SD       0.10E+00   17.6     0.00000328     -5734.5609294080 -1.08E-05
    14 OT SD       0.10E+00   19.7     0.00000331     -5734.5609402220 -1.08E-05
    15 OT SD       0.10E+00   19.6     0.00000337     -5734.5609510815 -1.09E-05
    16 OT SD       0.10E+00   19.0     0.00000360     -5734.5609618728 -1.08E-05
    17 OT SD       0.10E+00   16.3     0.00000440     -5734.5609720307 -1.02E-05
    18 OT SD       0.10E+00   16.6     0.00000682     -5734.5609789930 -6.96E-06
    19 OT DIIS     0.10E+00   17.3     0.00001288     -5734.5609712514  7.74E-06
    20 OT DIIS     0.10E+00   22.2     0.00000317     -5734.5609782855 -7.03E-06
    21 OT DIIS     0.10E+00   17.4     0.00000316     -5734.5609950554 -1.68E-05
    22 OT SD       0.10E+00   18.1     0.00000316     -5734.5609996499 -4.59E-06
    23 OT SD       0.10E+00   17.0     0.00000317     -5734.5610097553 -1.01E-05
    24 OT SD       0.10E+00   17.5     0.00000319     -5734.5610199102 -1.02E-05
    25 OT SD       0.10E+00   16.8     0.00000321     -5734.5610301237 -1.02E-05
    26 OT SD       0.10E+00   17.3     0.00000329     -5734.5610403810 -1.03E-05
    27 OT SD       0.10E+00   18.2     0.00000352     -5734.5610505624 -1.02E-05
    28 OT SD       0.10E+00   17.1     0.00000434     -5734.5610600917 -9.53E-06
    29 OT SD       0.10E+00   16.9     0.00000679     -5734.5610663961 -6.30E-06
    30 OT SD       0.10E+00   17.2     0.00001282     -5734.5610581039  8.29E-06
    31 OT DIIS     0.10E+00   16.9     0.00002618     -5734.5609847087  7.34E-05
    32 OT SD       0.10E+00   16.6     0.00000311     -5734.5610351136 -5.04E-05
    33 OT SD       0.10E+00   19.1     0.00000311     -5734.5610448375 -9.72E-06
    34 OT SD       0.10E+00   16.9     0.00000313     -5734.5610545656 -9.73E-06
    35 OT SD       0.10E+00   17.0     0.00000319     -5734.5610642775 -9.71E-06
    36 OT SD       0.10E+00   15.0     0.00000340     -5734.5610738491 -9.57E-06
    37 OT SD       0.10E+00   18.5     0.00000422     -5734.5610826912 -8.84E-06
    38 OT SD       0.10E+00   16.8     0.00000679     -5734.5610880668 -5.38E-06
    39 OT SD       0.10E+00   15.1     0.00001328     -5734.5610772303  1.08E-05
    40 OT DIIS     0.10E+00   16.9     0.00002800     -5734.5609904511  8.68E-05
    41 OT DIIS     0.10E+00   18.1     0.00000308     -5734.5610609795 -7.05E-05
    42 OT DIIS     0.10E+00   17.0     0.00000307     -5734.5610708019 -9.82E-06
    43 OT SD       0.10E+00   16.3     0.00000306     -5734.5611149963 -4.42E-05
    44 OT SD       0.10E+00   16.4     0.00000307     -5734.5611244607 -9.46E-06
    45 OT SD       0.10E+00   18.8     0.00000309     -5734.5611339323 -9.47E-06
    46 OT SD       0.10E+00   16.1     0.00000315     -5734.5611433861 -9.45E-06
    47 OT SD       0.10E+00   18.4     0.00000340     -5734.5611526828 -9.30E-06
    48 OT SD       0.10E+00   16.9     0.00000428     -5734.5611611849 -8.50E-06
    49 OT SD       0.10E+00   20.5     0.00000692     -5734.5611660498 -4.86E-06
    50 OT SD       0.10E+00   18.3     0.00001338     -5734.5611545724  1.15E-05
    51 OT DIIS     0.10E+00   17.9     0.00002769     -5734.5610695252  8.50E-05
    52 OT DIIS     0.10E+00   14.8     0.00000303     -5734.5611295025 -6.00E-05
    53 OT DIIS     0.10E+00   17.2     0.00000303     -5734.5611342796 -4.78E-06
    54 OT DIIS     0.10E+00   18.2     0.00000303     -5734.5611544059 -2.01E-05
    55 OT SD       0.10E+00   15.3     0.00000303     -5734.5611606375 -6.23E-06
    56 OT SD       0.10E+00   18.7     0.00000303     -5734.5611699030 -9.27E-06
    57 OT SD       0.10E+00   17.2     0.00000304     -5734.5611791796 -9.28E-06
    58 OT SD       0.10E+00   21.6     0.00000304     -5734.5611884707 -9.29E-06
    59 OT SD       0.10E+00   16.3     0.00000306     -5734.5611977733 -9.30E-06
    60 OT SD       0.10E+00   16.4     0.00000314     -5734.5612070535 -9.28E-06
    61 OT SD       0.10E+00   18.5     0.00000343     -5734.5612161349 -9.08E-06
    62 OT SD       0.10E+00   16.0     0.00000452     -5734.5612241892 -8.05E-06
    63 OT SD       0.10E+00   20.0     0.00000774     -5734.5612273710 -3.18E-06
    64 OT DIIS     0.10E+00   16.5     0.00001556     -5734.5612077981  1.96E-05
    65 OT SD       0.10E+00   18.5     0.00000301     -5734.5612338784 -2.61E-05
    66 OT DIIS     0.10E+00   21.8     0.00000301     -5734.5612429521 -9.07E-06
    67 OT SD       0.10E+00   16.6     0.00000300     -5734.5612492963 -6.34E-06
    68 OT SD       0.10E+00   19.8     0.00000301     -5734.5612583926 -9.10E-06
    69 OT SD       0.10E+00   16.3     0.00000301     -5734.5612675106 -9.12E-06
    70 OT SD       0.10E+00   17.5     0.00000303     -5734.5612766526 -9.14E-06
    71 OT SD       0.10E+00   18.1     0.00000308     -5734.5612858021 -9.15E-06
    72 OT SD       0.10E+00   18.7     0.00000327     -5734.5612948556 -9.05E-06
    73 OT SD       0.10E+00   19.7     0.00000401     -5734.5613033091 -8.45E-06
    74 OT SD       0.10E+00   15.6     0.00000635     -5734.5613088099 -5.50E-06
    75 OT SD       0.10E+00   18.4     0.00001233     -5734.5613004194  8.39E-06
    76 OT DIIS     0.10E+00   16.7     0.00002591     -5734.5612271127  7.33E-05
    77 OT SD       0.10E+00   17.4     0.00000298     -5734.5612766259 -4.95E-05
    78 OT SD       0.10E+00   16.3     0.00000298     -5734.5612855447 -8.92E-06
    79 OT SD       0.10E+00   19.0     0.00000299     -5734.5612944657 -8.92E-06
    80 OT SD       0.10E+00   16.3     0.00000301     -5734.5613033849 -8.92E-06
    81 OT SD       0.10E+00   16.7     0.00000309     -5734.5613122714 -8.89E-06
    82 OT SD       0.10E+00   18.2     0.00000333     -5734.5613209974 -8.73E-06
    83 OT SD       0.10E+00   18.3     0.00000410     -5734.5613290435 -8.05E-06
    84 OT SD       0.10E+00   18.1     0.00000632     -5734.5613342538 -5.21E-06
    85 OT DIIS     0.10E+00   17.9     0.00001170     -5734.5613274173  6.84E-06
    86 OT DIIS     0.10E+00   16.0     0.00000295     -5734.5613118359  1.56E-05
    87 OT DIIS     0.10E+00   19.0     0.00000295     -5734.5613182591 -6.42E-06
    88 OT SD       0.10E+00   16.5     0.00000295     -5734.5613553563 -3.71E-05
    89 OT SD       0.10E+00   19.9     0.00000295     -5734.5613641214 -8.77E-06
    90 OT SD       0.10E+00   16.0     0.00000297     -5734.5613728941 -8.77E-06
    91 OT SD       0.10E+00   17.8     0.00000302     -5734.5613816526 -8.76E-06
    92 OT SD       0.10E+00   20.9     0.00000324     -5734.5613902746 -8.62E-06
    93 OT SD       0.10E+00   16.8     0.00000407     -5734.5613981784 -7.90E-06
    94 OT SD       0.10E+00   19.0     0.00000666     -5734.5614026666 -4.49E-06
    95 OT SD       0.10E+00   17.2     0.00001311     -5734.5613912331  1.14E-05
    96 OT DIIS     0.10E+00   20.6     0.00002766     -5734.5613056050  8.56E-05
    97 OT DIIS     0.10E+00   16.7     0.00000293     -5734.5613641612 -5.86E-05
    98 OT DIIS     0.10E+00   18.7     0.00000292     -5734.5613671371 -2.98E-06
    99 OT DIIS     0.10E+00   17.0     0.00000292     -5734.5613738134 -6.68E-06
   100 OT DIIS     0.10E+00   16.4     0.00000292     -5734.5613758033 -1.99E-06
   101 OT SD       0.10E+00   19.9     0.00000292     -5734.5613788693 -3.07E-06
   102 OT SD       0.10E+00   22.0     0.00000293     -5734.5613874943 -8.62E-06
   103 OT SD       0.10E+00   20.1     0.00000293     -5734.5613961272 -8.63E-06
   104 OT SD       0.10E+00   19.2     0.00000293     -5734.5614047711 -8.64E-06
   105 OT DIIS     0.10E+00   21.0     0.00000294     -5734.5614134266 -8.66E-06
   106 OT DIIS     0.10E+00   19.8     0.00000291     -5734.5614153125 -1.89E-06
   107 OT DIIS     0.10E+00   18.1     0.00000289     -5734.5614916291 -7.63E-05
   108 OT DIIS     0.10E+00   18.8     0.00000290     -5734.5615140198 -2.24E-05
   109 OT SD       0.10E+00   17.8     0.00000289     -5734.5615383541 -2.43E-05
   110 OT SD       0.10E+00   19.0     0.00000290     -5734.5615467978 -8.44E-06
   111 OT DIIS     0.10E+00   16.3     0.00000291     -5734.5615552792 -8.48E-06
   112 OT DIIS     0.10E+00   16.2     0.00000290     -5734.5617221707 -1.67E-04
   113 OT SD       0.10E+00   18.5     0.00000288     -5734.5618229060 -1.01E-04
   114 OT DIIS     0.10E+00   18.7     0.00000295     -5734.5618305962 -7.69E-06
   115 OT DIIS     0.10E+00   19.1     0.00000314     -5734.5620851031 -2.55E-04
   116 OT DIIS     0.10E+00   19.7     0.00000277     -5734.5621356374 -5.05E-05
   117 OT DIIS     0.10E+00   17.8     0.00000374     -5734.5623754618 -2.40E-04
   118 OT DIIS     0.10E+00   19.1     0.00000274     -5734.5623953845 -1.99E-05
   119 OT DIIS     0.10E+00   20.7     0.00000277     -5734.5624614872 -6.61E-05
   120 OT SD       0.10E+00   18.8     0.00000285     -5734.5624619616 -4.74E-07

  Leaving inner SCF loop after reaching   120 steps.


  Electronic density on regular grids:      -2111.9999999842        0.0000000158
  Core density on regular grids:             2111.9999999991       -0.0000000009
  Total charge density on r-space grids:        0.0000000149
  Total charge density g-space grids:           0.0000000149

  Overlap energy of the core charge distribution:               0.02247140509388
  Self energy of the core charge distribution:             -13908.04008471225097
  Core Hamiltonian energy:                                   3762.39634714431213
  Hartree energy:                                            5555.55997746468256
  Exchange-correlation energy:                              -1141.48717019126707
  Dispersion energy:                                           -3.01400307214614

  Total energy:                                             -5734.56246196157554

  outer SCF iter =    3 RMS gradient =   0.28E-05 energy =      -5734.5624619616

  ----------------------------------- OT ---------------------------------------
  Minimizer      : DIIS                : direct inversion
                                         in the iterative subspace
                                         using   7 DIIS vectors
                                         safer DIIS on
  Preconditioner : FULL_SINGLE_INVERSE : inversion of 
                                         H + eS - 2*(Sc)(c^T*H*c+const)(Sc)^T
  Precond_solver : INVERSE_UPDATE
  stepsize       :    0.10000000                  energy_gap     :    0.10000000
  eps_taylor     :   0.10000E-15                  max_taylor     :             4
  ----------------------------------- OT ---------------------------------------

  Step     Update method      Time    Convergence         Total energy    Change
  ------------------------------------------------------------------------------


     Lanczos converged:  T threshold:   0.100E-02
     Est. extremal eigenvalues:    0.189E+01   0.479E+00
     Est. condition number :    0.395E+01
     Hotelling iter   1 1.00000000   0.379E+00       2.660   163829.603



     Lanczos converged:  T threshold:   0.100E-02
     Est. extremal eigenvalues:    0.190E+01   0.478E+00
     Est. condition number :    0.398E+01
     Hotelling iter   1 1.00000000   0.382E+00       3.288   132542.203

     1 OT DIIS     0.10E+00   62.4     0.00000272     -5734.5624687738 -6.81E-06
     2 OT DIIS     0.10E+00   16.7     0.00000294     -5734.5624742606 -5.49E-06
     3 OT DIIS     0.10E+00   17.5     0.00000241     -5734.5624773756 -3.12E-06
     4 OT SD       0.10E+00   17.0     0.00000241     -5734.5624777363 -3.61E-07
     5 OT SD       0.10E+00   16.8     0.00000246     -5734.5624836236 -5.89E-06
     6 OT SD       0.10E+00   16.9     0.00000253     -5734.5624896721 -6.05E-06
     7 OT SD       0.10E+00   16.5     0.00000268     -5734.5624958815 -6.21E-06
     8 OT SD       0.10E+00   17.2     0.00000309     -5734.5625021216 -6.24E-06
     9 OT SD       0.10E+00   18.7     0.00000420     -5734.5625077525 -5.63E-06
    10 OT SD       0.10E+00   18.9     0.00000687     -5734.5625101563 -2.40E-06
    11 OT SD       0.10E+00   19.2     0.00001262     -5734.5624990501  1.11E-05
    12 OT DIIS     0.10E+00   17.6     0.00002431     -5734.5624343460  6.47E-05
    13 OT DIIS     0.10E+00   17.4     0.00000220     -5734.5624756422 -4.13E-05
    14 OT DIIS     0.10E+00   14.3     0.00000220     -5734.5624774952 -1.85E-06
    15 OT SD       0.10E+00   17.4     0.00000220     -5734.5624794357 -1.94E-06
    16 OT SD       0.10E+00   18.0     0.00000220     -5734.5624843255 -4.89E-06
    17 OT SD       0.10E+00   16.9     0.00000221     -5734.5624892300 -4.90E-06
    18 OT SD       0.10E+00   18.1     0.00000222     -5734.5624941524 -4.92E-06
    19 OT SD       0.10E+00   17.9     0.00000224     -5734.5624990932 -4.94E-06
    20 OT SD       0.10E+00   16.3     0.00000228     -5734.5625040404 -4.95E-06
    21 OT SD       0.10E+00   15.2     0.00000244     -5734.5625089348 -4.89E-06
    22 OT SD       0.10E+00   16.5     0.00000295     -5734.5625135287 -4.59E-06
    23 OT SD       0.10E+00   16.4     0.00000441     -5734.5625168270 -3.30E-06
    24 OT SD       0.10E+00   17.4     0.00000787     -5734.5625148428  1.98E-06
    25 OT DIIS     0.10E+00   17.8     0.00001522     -5734.5624915541  2.33E-05
    26 OT SD       0.10E+00   16.1     0.00000216     -5734.5624851643  6.39E-06
    27 OT SD       0.10E+00   17.2     0.00000216     -5734.5624898419 -4.68E-06
    28 OT SD       0.10E+00   16.2     0.00000217     -5734.5624945392 -4.70E-06
    29 OT SD       0.10E+00   16.4     0.00000218     -5734.5624992628 -4.72E-06
    30 OT SD       0.10E+00   15.8     0.00000221     -5734.5625040158 -4.75E-06
    31 OT SD       0.10E+00   18.7     0.00000226     -5734.5625087940 -4.78E-06
    32 OT SD       0.10E+00   16.5     0.00000238     -5734.5625135664 -4.77E-06
    33 OT SD       0.10E+00   17.8     0.00000271     -5734.5625182106 -4.64E-06
    34 OT SD       0.10E+00   20.3     0.00000357     -5734.5625222870 -4.08E-06
    35 OT SD       0.10E+00   15.7     0.00000555     -5734.5625242368 -1.95E-06
    36 OT SD       0.10E+00   15.0     0.00000969     -5734.5625184603  5.78E-06
    37 OT DIIS     0.10E+00   17.9     0.00001792     -5734.5624844769  3.40E-05
    38 OT SD       0.10E+00   17.3     0.00000212     -5734.5625005048 -1.60E-05
    39 OT SD       0.10E+00   17.0     0.00000212     -5734.5625050429 -4.54E-06
    40 OT SD       0.10E+00   18.6     0.00000213     -5734.5625095853 -4.54E-06
    41 OT SD       0.10E+00   17.1     0.00000214     -5734.5625141292 -4.54E-06
    42 OT SD       0.10E+00   16.3     0.00000219     -5734.5625186598 -4.53E-06
    43 OT SD       0.10E+00   16.8     0.00000235     -5734.5625231139 -4.45E-06
    44 OT SD       0.10E+00   18.2     0.00000287     -5734.5625272432 -4.13E-06
    45 OT SD       0.10E+00   17.7     0.00000432     -5734.5625300748 -2.83E-06
    46 OT DIIS     0.10E+00   17.5     0.00000771     -5734.5625277931  2.28E-06
    47 OT SD       0.10E+00   15.9     0.00000210     -5734.5625244646  3.33E-06
    48 OT SD       0.10E+00   17.3     0.00000211     -5734.5625288879 -4.42E-06
    49 OT SD       0.10E+00   19.1     0.00000213     -5734.5625333168 -4.43E-06
    50 OT SD       0.10E+00   18.6     0.00000217     -5734.5625377429 -4.43E-06
    51 OT SD       0.10E+00   16.9     0.00000232     -5734.5625421180 -4.38E-06
    52 OT SD       0.10E+00   18.5     0.00000275     -5734.5625462548 -4.14E-06
    53 OT SD       0.10E+00   16.0     0.00000394     -5734.5625494429 -3.19E-06
    54 OT SD       0.10E+00   18.7     0.00000672     -5734.5625489725  4.70E-07
    55 OT DIIS     0.10E+00   19.7     0.00001258     -5734.5625343803  1.46E-05
    56 OT SD       0.10E+00   18.0     0.00000207     -5734.5625267054  7.67E-06
    57 OT DIIS     0.10E+00   21.2     0.00000208     -5734.5625310336 -4.33E-06
    58 OT SD       0.10E+00   17.3     0.00000207     -5734.5625362753 -5.24E-06
    59 OT SD       0.10E+00   18.6     0.00000207     -5734.5625406074 -4.33E-06
    60 OT SD       0.10E+00   17.7     0.00000207     -5734.5625449429 -4.34E-06
    61 OT SD       0.10E+00   16.4     0.00000208     -5734.5625492825 -4.34E-06
    62 OT SD       0.10E+00   17.2     0.00000208     -5734.5625536259 -4.34E-06
    63 OT SD       0.10E+00   18.0     0.00000210     -5734.5625579690 -4.34E-06
    64 OT SD       0.10E+00   17.7     0.00000215     -5734.5625622923 -4.32E-06
    65 OT SD       0.10E+00   16.2     0.00000235     -5734.5625665130 -4.22E-06
    66 OT SD       0.10E+00   18.7     0.00000302     -5734.5625702952 -3.78E-06
    67 OT SD       0.10E+00   16.2     0.00000485     -5734.5625722803 -1.99E-06
    68 OT DIIS     0.10E+00   17.6     0.00000903     -5734.5625669714  5.31E-06
    69 OT SD       0.10E+00   18.8     0.00000206     -5734.5625616198  5.35E-06
    70 OT SD       0.10E+00   19.5     0.00000207     -5734.5625658918 -4.27E-06
    71 OT SD       0.10E+00   17.6     0.00000207     -5734.5625701709 -4.28E-06
    72 OT SD       0.10E+00   18.2     0.00000208     -5734.5625744594 -4.29E-06
    73 OT SD       0.10E+00   16.2     0.00000211     -5734.5625787556 -4.30E-06
    74 OT SD       0.10E+00   21.1     0.00000216     -5734.5625830501 -4.29E-06
    75 OT SD       0.10E+00   16.2     0.00000229     -5734.5625873097 -4.26E-06
    76 OT SD       0.10E+00   18.3     0.00000259     -5734.5625914315 -4.12E-06
    77 OT SD       0.10E+00   14.4     0.00000330     -5734.5625950956 -3.66E-06
    78 OT SD       0.10E+00   18.2     0.00000483     -5734.5625972974 -2.20E-06
    79 OT SD       0.10E+00   16.2     0.00000789     -5734.5625947988  2.50E-06
    80 OT DIIS     0.10E+00   17.5     0.00001370     -5734.5625768923  1.79E-05
    81 OT SD       0.10E+00   18.3     0.00000204     -5734.5625744234  2.47E-06
    82 OT SD       0.10E+00   17.6     0.00000204     -5734.5625786323 -4.21E-06
    83 OT SD       0.10E+00   18.6     0.00000205     -5734.5625828418 -4.21E-06
    84 OT SD       0.10E+00   17.1     0.00000206     -5734.5625870484 -4.21E-06
    85 OT SD       0.10E+00   16.4     0.00000211     -5734.5625912361 -4.19E-06
    86 OT SD       0.10E+00   17.9     0.00000227     -5734.5625953425 -4.11E-06
    87 OT SD       0.10E+00   15.8     0.00000279     -5734.5625991225 -3.78E-06
    88 OT DIIS     0.10E+00   17.6     0.00000425     -5734.5626016162 -2.49E-06
    89 OT DIIS     0.10E+00   17.1     0.00000204     -5734.5626045705 -2.95E-06
    90 OT DIIS     0.10E+00   18.5     0.00000203     -5734.5626071625 -2.59E-06
    91 OT DIIS     0.10E+00   18.6     0.00000203     -5734.5626172235 -1.01E-05
    92 OT SD       0.10E+00   18.7     0.00000203     -5734.5626262045 -8.98E-06
    93 OT SD       0.10E+00   19.0     0.00000203     -5734.5626303568 -4.15E-06
    94 OT SD       0.10E+00   16.1     0.00000204     -5734.5626345226 -4.17E-06
    95 OT DIIS     0.10E+00   18.4     0.00000204     -5734.5626387046 -4.18E-06
    96 OT DIIS     0.10E+00   17.0     0.00000202     -5734.5626465364 -7.83E-06
    97 OT DIIS     0.10E+00   20.4     0.00000200     -5734.5626821452 -3.56E-05
    98 OT DIIS     0.10E+00   18.6     0.00000202     -5734.5627360308 -5.39E-05
    99 OT DIIS     0.10E+00   16.0     0.00000201     -5734.5628302705 -9.42E-05
   100 OT SD       0.10E+00   19.0     0.00000199     -5734.5628317498 -1.48E-06
   101 OT DIIS     0.10E+00   15.5     0.00000200     -5734.5628356574 -3.91E-06
   102 OT DIIS     0.10E+00   19.2     0.00000197     -5734.5628439501 -8.29E-06
   103 OT DIIS     0.10E+00   15.8     0.00000197     -5734.5628455471 -1.60E-06
   104 OT SD       0.10E+00   17.3     0.00000197     -5734.5628460027 -4.56E-07
   105 OT SD       0.10E+00   17.4     0.00000198     -5734.5628499212 -3.92E-06
   106 OT SD       0.10E+00   18.2     0.00000199     -5734.5628538545 -3.93E-06
   107 OT SD       0.10E+00   20.2     0.00000201     -5734.5628578029 -3.95E-06
   108 OT SD       0.10E+00   15.8     0.00000205     -5734.5628617565 -3.95E-06
   109 OT SD       0.10E+00   19.9     0.00000219     -5734.5628656737 -3.92E-06
   110 OT SD       0.10E+00   18.2     0.00000258     -5734.5628693969 -3.72E-06
   111 OT SD       0.10E+00   17.0     0.00000363     -5734.5628723473 -2.95E-06
   112 OT SD       0.10E+00   17.7     0.00000608     -5734.5628723772 -2.99E-08
   113 OT SD       0.10E+00   17.0     0.00001120     -5734.5628613963  1.10E-05
   114 OT DIIS     0.10E+00   20.3     0.00002145     -5734.5628084784  5.29E-05
   115 OT SD       0.10E+00   16.5     0.00000194     -5734.5628119372 -3.46E-06
   116 OT SD       0.10E+00   17.7     0.00000194     -5734.5628157328 -3.80E-06
   117 OT SD       0.10E+00   17.9     0.00000195     -5734.5628195281 -3.80E-06
   118 OT SD       0.10E+00   16.5     0.00000196     -5734.5628233228 -3.79E-06
   119 OT SD       0.10E+00   20.1     0.00000199     -5734.5628271073 -3.78E-06
   120 OT SD       0.10E+00   16.3     0.00000211     -5734.5628308403 -3.73E-06

  Leaving inner SCF loop after reaching   120 steps.


  Electronic density on regular grids:      -2111.9999999844        0.0000000156
  Core density on regular grids:             2111.9999999991       -0.0000000009
  Total charge density on r-space grids:        0.0000000147
  Total charge density g-space grids:           0.0000000147

  Overlap energy of the core charge distribution:               0.02247140509388
  Self energy of the core charge distribution:             -13908.04008471225097
  Core Hamiltonian energy:                                   3762.39096820812938
  Hartree energy:                                            5555.56468555807714
  Exchange-correlation energy:                              -1141.48686822717582
  Dispersion energy:                                           -3.01400307214614

  Total energy:                                             -5734.56283084027109

  outer SCF iter =    4 RMS gradient =   0.21E-05 energy =      -5734.5628308403

  ----------------------------------- OT ---------------------------------------
  Minimizer      : DIIS                : direct inversion
                                         in the iterative subspace
                                         using   7 DIIS vectors
                                         safer DIIS on
  Preconditioner : FULL_SINGLE_INVERSE : inversion of 
                                         H + eS - 2*(Sc)(c^T*H*c+const)(Sc)^T
  Precond_solver : INVERSE_UPDATE
  stepsize       :    0.10000000                  energy_gap     :    0.10000000
  eps_taylor     :   0.10000E-15                  max_taylor     :             4
  ----------------------------------- OT ---------------------------------------

  Step     Update method      Time    Convergence         Total energy    Change
  ------------------------------------------------------------------------------


     Lanczos converged:  T threshold:   0.100E-02
     Est. extremal eigenvalues:    0.112E+01   0.525E+00
     Est. condition number :    0.213E+01
     Hotelling iter   1 1.00000000   0.154E+00       2.386   182612.781



     Lanczos converged:  T threshold:   0.100E-02
     Est. extremal eigenvalues:    0.112E+01   0.524E+00
     Est. condition number :    0.214E+01
     Hotelling iter   1 1.00000000   0.155E+00       3.212   135669.301

     1 OT DIIS     0.10E+00   64.4     0.00000268     -5734.5628343572 -3.52E-06
     2 OT DIIS     0.10E+00   18.1     0.00000391     -5734.5628377068 -3.35E-06
     3 OT DIIS     0.10E+00   17.0     0.00000216     -5734.5628410033 -3.30E-06
     4 OT SD       0.10E+00   16.5     0.00000216     -5734.5628415138 -5.10E-07
     5 OT SD       0.10E+00   17.4     0.00000217     -5734.5628462222 -4.71E-06
     6 OT SD       0.10E+00   17.3     0.00000219     -5734.5628509444 -4.72E-06
     7 OT SD       0.10E+00   17.3     0.00000224     -5734.5628556655 -4.72E-06
     8 OT SD       0.10E+00   17.5     0.00000244     -5734.5628603075 -4.64E-06
     9 OT SD       0.10E+00   18.1     0.00000312     -5734.5628645125 -4.21E-06
    10 OT SD       0.10E+00   17.2     0.00000514     -5734.5628666855 -2.17E-06
    11 OT SD       0.10E+00   15.9     0.00000999     -5734.5628597163  6.97E-06
    12 OT DIIS     0.10E+00   19.3     0.00002065     -5734.5628117959  4.79E-05
    13 OT SD       0.10E+00   16.8     0.00000214     -5734.5628358243 -2.40E-05
    14 OT SD       0.10E+00   19.0     0.00000214     -5734.5628404361 -4.61E-06
    15 OT SD       0.10E+00   18.8     0.00000214     -5734.5628450509 -4.61E-06
    16 OT SD       0.10E+00   17.2     0.00000215     -5734.5628496684 -4.62E-06
    17 OT SD       0.10E+00   20.4     0.00000217     -5734.5628542840 -4.62E-06
    18 OT SD       0.10E+00   17.5     0.00000223     -5734.5628588759 -4.59E-06
    19 OT SD       0.10E+00   18.6     0.00000244     -5734.5628633545 -4.48E-06
    20 OT SD       0.10E+00   19.5     0.00000314     -5734.5628673570 -4.00E-06
    21 OT SD       0.10E+00   17.1     0.00000507     -5734.5628693960 -2.04E-06
    22 OT DIIS     0.10E+00   15.6     0.00000951     -5734.5628633084  6.09E-06
    23 OT SD       0.10E+00   16.2     0.00000213     -5734.5628547374  8.57E-06
    24 OT SD       0.10E+00   17.4     0.00000213     -5734.5628592929 -4.56E-06
    25 OT SD       0.10E+00   19.2     0.00000215     -5734.5628638526 -4.56E-06
    26 OT SD       0.10E+00   17.2     0.00000217     -5734.5628684111 -4.56E-06
    27 OT SD       0.10E+00   17.2     0.00000226     -5734.5628729408 -4.53E-06
    28 OT SD       0.10E+00   17.3     0.00000253     -5734.5628773325 -4.39E-06
    29 OT SD       0.10E+00   18.8     0.00000336     -5734.5628811460 -3.81E-06
    30 OT SD       0.10E+00   17.3     0.00000553     -5734.5628825793 -1.43E-06
    31 OT DIIS     0.10E+00   17.2     0.00001050     -5734.5628740794  8.50E-06
    32 OT SD       0.10E+00   18.8     0.00000211     -5734.5628631068  1.10E-05
    33 OT SD       0.10E+00   15.3     0.00000212     -5734.5628676075 -4.50E-06
    34 OT SD       0.10E+00   16.8     0.00000212     -5734.5628721078 -4.50E-06
    35 OT SD       0.10E+00   15.8     0.00000215     -5734.5628766008 -4.49E-06
    36 OT SD       0.10E+00   19.4     0.00000223     -5734.5628810548 -4.45E-06
    37 OT SD       0.10E+00   16.5     0.00000253     -5734.5628853370 -4.28E-06
    38 OT SD       0.10E+00   18.0     0.00000351     -5734.5628888882 -3.55E-06
    39 OT SD       0.10E+00   17.6     0.00000610     -5734.5628893305 -4.42E-07
    40 OT DIIS     0.10E+00   18.1     0.00001197     -5734.5628764467  1.29E-05
    41 OT SD       0.10E+00   20.8     0.00000211     -5734.5628816091 -5.16E-06
    42 OT DIIS     0.10E+00   17.0     0.00000211     -5734.5628860561 -4.45E-06
    43 OT DIIS     0.10E+00   17.3     0.00000210     -5734.5628879287 -1.87E-06
    44 OT SD       0.10E+00   17.2     0.00000210     -5734.5628880714 -1.43E-07
    45 OT SD       0.10E+00   16.6     0.00000211     -5734.5628925303 -4.46E-06
    46 OT SD       0.10E+00   19.5     0.00000211     -5734.5628969972 -4.47E-06
    47 OT SD       0.10E+00   17.6     0.00000212     -5734.5629014708 -4.47E-06
    48 OT SD       0.10E+00   16.2     0.00000217     -5734.5629059384 -4.47E-06
    49 OT SD       0.10E+00   19.0     0.00000232     -5734.5629103400 -4.40E-06
    50 OT SD       0.10E+00   16.6     0.00000286     -5734.5629144186 -4.08E-06
    51 OT SD       0.10E+00   18.4     0.00000442     -5734.5629170954 -2.68E-06
    52 OT SD       0.10E+00   16.6     0.00000820     -5734.5629138264  3.27E-06
    53 OT DIIS     0.10E+00   15.1     0.00001638     -5734.5628853335  2.85E-05
    54 OT SD       0.10E+00   18.3     0.00000209     -5734.5628954697 -1.01E-05
    55 OT SD       0.10E+00   17.4     0.00000209     -5734.5628998787 -4.41E-06
    56 OT SD       0.10E+00   15.9     0.00000210     -5734.5629042896 -4.41E-06
    57 OT SD       0.10E+00   21.3     0.00000210     -5734.5629087023 -4.41E-06
    58 OT SD       0.10E+00   18.2     0.00000211     -5734.5629131141 -4.41E-06
    59 OT SD       0.10E+00   17.9     0.00000215     -5734.5629175146 -4.40E-06
    60 OT SD       0.10E+00   15.2     0.00000225     -5734.5629218678 -4.35E-06
    61 OT SD       0.10E+00   17.1     0.00000257     -5734.5629260459 -4.18E-06
    62 OT SD       0.10E+00   16.7     0.00000346     -5734.5629295751 -3.53E-06
    63 OT SD       0.10E+00   19.1     0.00000565     -5734.5629306298 -1.05E-06
    64 OT DIIS     0.10E+00   17.9     0.00001050     -5734.5629219252  8.70E-06
    65 OT SD       0.10E+00   18.3     0.00000209     -5734.5629103785  1.15E-05
    66 OT SD       0.10E+00   15.0     0.00000209     -5734.5629147511 -4.37E-06
    67 OT SD       0.10E+00   17.5     0.00000210     -5734.5629191247 -4.37E-06
    68 OT SD       0.10E+00   17.4     0.00000213     -5734.5629234921 -4.37E-06
    69 OT SD       0.10E+00   15.2     0.00000222     -5734.5629278199 -4.33E-06
    70 OT SD       0.10E+00   17.7     0.00000254     -5734.5629319748 -4.15E-06
    71 OT SD       0.10E+00   16.4     0.00000350     -5734.5629354198 -3.44E-06
    72 OT SD       0.10E+00   17.0     0.00000597     -5734.5629359655 -5.46E-07
    73 OT DIIS     0.10E+00   16.8     0.00001146     -5734.5629245250  1.14E-05
    74 OT SD       0.10E+00   15.5     0.00000207     -5734.5629207240  3.80E-06
    75 OT DIIS     0.10E+00   17.8     0.00000208     -5734.5629250545 -4.33E-06
    76 OT SD       0.10E+00   17.0     0.00000207     -5734.5629307621 -5.71E-06
    77 OT SD       0.10E+00   18.0     0.00000207     -5734.5629350973 -4.34E-06
    78 OT SD       0.10E+00   18.4     0.00000208     -5734.5629394360 -4.34E-06
    79 OT SD       0.10E+00   17.1     0.00000208     -5734.5629437778 -4.34E-06
    80 OT DIIS     0.10E+00   17.2     0.00000210     -5734.5629481174 -4.34E-06
    81 OT SD       0.10E+00   17.5     0.00000206     -5734.5629631338 -1.50E-05
    82 OT DIIS     0.10E+00   16.1     0.00000209     -5734.5629673064 -4.17E-06
    83 OT SD       0.10E+00   17.0     0.00000303     -5734.5632509389 -2.84E-04
    84 OT SD       0.10E+00   15.1     0.00000354     -5734.5632543226 -3.38E-06
    85 OT DIIS     0.10E+00   17.7     0.00000498     -5734.5632558888 -1.57E-06
    86 OT DIIS     0.10E+00   16.1     0.00000196     -5734.5632680763 -1.22E-05
    87 OT SD       0.10E+00   15.3     0.00000197     -5734.5632927103 -2.46E-05
    88 OT SD       0.10E+00   19.0     0.00000198     -5734.5632965603 -3.85E-06
    89 OT DIIS     0.10E+00   17.6     0.00000202     -5734.5633004314 -3.87E-06
    90 OT DIIS     0.10E+00   17.7     0.00000193     -5734.5633012286 -7.97E-07
    91 OT DIIS     0.10E+00   17.7     0.00000192     -5734.5633068200 -5.59E-06
    92 OT DIIS     0.10E+00   19.6     0.00000190     -5734.5633212108 -1.44E-05
    93 OT DIIS     0.10E+00   17.3     0.00000190     -5734.5633469890 -2.58E-05
    94 OT DIIS     0.10E+00   18.3     0.00000189     -5734.5633789809 -3.20E-05
    95 OT DIIS     0.10E+00   20.7     0.00000188     -5734.5633998390 -2.09E-05
    96 OT DIIS     0.10E+00   17.9     0.00000188     -5734.5634106028 -1.08E-05
    97 OT DIIS     0.10E+00   16.0     0.00000188     -5734.5634218395 -1.12E-05
    98 OT SD       0.10E+00   21.0     0.00000188     -5734.5634222547 -4.15E-07
    99 OT SD       0.10E+00   15.9     0.00000188     -5734.5634258133 -3.56E-06
   100 OT SD       0.10E+00   18.3     0.00000188     -5734.5634293803 -3.57E-06
   101 OT DIIS     0.10E+00   17.8     0.00000189     -5734.5634329571 -3.58E-06
   102 OT SD       0.10E+00   15.9     0.00000187     -5734.5634337028 -7.46E-07
   103 OT DIIS     0.10E+00   16.5     0.00000190     -5734.5634371577 -3.45E-06
   104 OT SD       0.10E+00   18.8     0.00000189     -5734.5635494827 -1.12E-04
   105 OT DIIS     0.10E+00   19.0     0.00000193     -5734.5635527865 -3.30E-06
   106 OT DIIS     0.10E+00   21.1     0.00000183     -5734.5636132633 -6.05E-05
   107 OT DIIS     0.10E+00   19.8     0.00000188     -5734.5636679726 -5.47E-05
   108 OT DIIS     0.10E+00   17.1     0.00000177     -5734.5637291304 -6.12E-05
   109 OT DIIS     0.10E+00   20.0     0.00000177     -5734.5637692805 -4.02E-05
   110 OT DIIS     0.10E+00   18.3     0.00000175     -5734.5637959872 -2.67E-05
   111 OT DIIS     0.10E+00   18.4     0.00000176     -5734.5638082457 -1.23E-05
   112 OT DIIS     0.10E+00   19.1     0.00000176     -5734.5638268669 -1.86E-05
   113 OT DIIS     0.10E+00   18.9     0.00000175     -5734.5638497940 -2.29E-05
   114 OT SD       0.10E+00   22.7     0.00000175     -5734.5638542216 -4.43E-06
   115 OT DIIS     0.10E+00   23.0     0.00000176     -5734.5638572871 -3.07E-06
   116 OT SD       0.10E+00   20.7     0.00000176     -5734.5638605308 -3.24E-06
   117 OT DIIS     0.10E+00   21.2     0.00000178     -5734.5638635572 -3.03E-06
   118 OT DIIS     0.10E+00   19.7     0.00000173     -5734.5638754465 -1.19E-05
   119 OT DIIS     0.10E+00   19.2     0.00000172     -5734.5639105649 -3.51E-05
   120 OT DIIS     0.10E+00   18.8     0.00000171     -5734.5639279442 -1.74E-05

  Leaving inner SCF loop after reaching   120 steps.


  Electronic density on regular grids:      -2111.9999999842        0.0000000158
  Core density on regular grids:             2111.9999999991       -0.0000000009
  Total charge density on r-space grids:        0.0000000149
  Total charge density g-space grids:           0.0000000149

  Overlap energy of the core charge distribution:               0.02247140509388
  Self energy of the core charge distribution:             -13908.04008471225097
  Core Hamiltonian energy:                                   3762.38623302900487
  Hartree energy:                                            5555.56689573090262
  Exchange-correlation energy:                              -1141.48544032476048
  Dispersion energy:                                           -3.01400307214614

  Total energy:                                             -5734.56392794415569

  outer SCF iter =    5 RMS gradient =   0.17E-05 energy =      -5734.5639279442

  ----------------------------------- OT ---------------------------------------
  Minimizer      : DIIS                : direct inversion
                                         in the iterative subspace
                                         using   7 DIIS vectors
                                         safer DIIS on
  Preconditioner : FULL_SINGLE_INVERSE : inversion of 
                                         H + eS - 2*(Sc)(c^T*H*c+const)(Sc)^T
  Precond_solver : INVERSE_UPDATE
  stepsize       :    0.10000000                  energy_gap     :    0.10000000
  eps_taylor     :   0.10000E-15                  max_taylor     :             4
  ----------------------------------- OT ---------------------------------------

  Step     Update method      Time    Convergence         Total energy    Change
  ------------------------------------------------------------------------------


     Lanczos converged:  T threshold:   0.100E-02
     Est. extremal eigenvalues:    0.218E+01   0.387E+00
     Est. condition number :    0.563E+01
     Hotelling iter   1 1.00000000   0.509E+00       2.566   169832.958
     Hotelling iter   2 1.00000000   0.116E+00       1.973   220833.134



     Lanczos converged:  T threshold:   0.100E-02
     Est. extremal eigenvalues:    0.216E+01   0.389E+00
     Est. condition number :    0.556E+01
     Hotelling iter   1 1.00000000   0.504E+00       2.715   160482.274
     Hotelling iter   2 1.00000000   0.114E+00       1.951   223384.849

     1 OT DIIS     0.10E+00   71.9     0.00000171     -5734.5639470521 -1.91E-05
     2 OT DIIS     0.10E+00   17.5     0.00000172     -5734.5639499837 -2.93E-06
     3 OT SD       0.10E+00   16.6     0.00000171     -5734.5639510455 -1.06E-06
     4 OT SD       0.10E+00   16.3     0.00000172     -5734.5639539982 -2.95E-06
     5 OT SD       0.10E+00   18.7     0.00000172     -5734.5639569700 -2.97E-06
     6 OT SD       0.10E+00   17.7     0.00000174     -5734.5639599641 -2.99E-06
     7 OT SD       0.10E+00   17.8     0.00000178     -5734.5639629761 -3.01E-06
     8 OT SD       0.10E+00   17.2     0.00000191     -5734.5639659675 -2.99E-06
     9 OT SD       0.10E+00   18.1     0.00000239     -5734.5639687470 -2.78E-06
    10 OT SD       0.10E+00   18.0     0.00000386     -5734.5639704269 -1.68E-06
    11 OT SD       0.10E+00   17.9     0.00000752     -5734.5639669431  3.48E-06
    12 OT DIIS     0.10E+00   17.6     0.00001569     -5734.5639397304  2.72E-05
    13 OT SD       0.10E+00   16.1     0.00000166     -5734.5639290422  1.07E-05
    14 OT SD       0.10E+00   18.5     0.00000167     -5734.5639318182 -2.78E-06
    15 OT SD       0.10E+00   16.2     0.00000168     -5734.5639346089 -2.79E-06
    16 OT SD       0.10E+00   17.3     0.00000171     -5734.5639374132 -2.80E-06
    17 OT SD       0.10E+00   18.4     0.00000182     -5734.5639402051 -2.79E-06
    18 OT SD       0.10E+00   15.8     0.00000220     -5734.5639428476 -2.64E-06
    19 OT SD       0.10E+00   18.3     0.00000338     -5734.5639447168 -1.87E-06
    20 OT SD       0.10E+00   17.1     0.00000634     -5734.5639430413  1.68E-06
    21 OT DIIS     0.10E+00   15.5     0.00001291     -5734.5639255610  1.75E-05
    22 OT SD       0.10E+00   16.3     0.00000162     -5734.5639300284 -4.47E-06
    23 OT SD       0.10E+00   16.8     0.00000163     -5734.5639326873 -2.66E-06
    24 OT SD       0.10E+00   16.2     0.00000163     -5734.5639353535 -2.67E-06
    25 OT SD       0.10E+00   16.1     0.00000164     -5734.5639380270 -2.67E-06
    26 OT SD       0.10E+00   17.6     0.00000167     -5734.5639407024 -2.68E-06
    27 OT SD       0.10E+00   17.8     0.00000177     -5734.5639433510 -2.65E-06
    28 OT SD       0.10E+00   16.4     0.00000212     -5734.5639458483 -2.50E-06
    29 OT SD       0.10E+00   17.1     0.00000318     -5734.5639476649 -1.82E-06
    30 OT SD       0.10E+00   16.0     0.00000581     -5734.5639465417  1.12E-06
    31 OT DIIS     0.10E+00   17.7     0.00001162     -5734.5639327462  1.38E-05
    32 OT SD       0.10E+00   16.0     0.00000160     -5734.5639232401  9.51E-06
    33 OT SD       0.10E+00   19.0     0.00000161     -5734.5639258274 -2.59E-06
    34 OT SD       0.10E+00   16.4     0.00000161     -5734.5639284254 -2.60E-06
    35 OT SD       0.10E+00   17.1     0.00000163     -5734.5639310349 -2.61E-06
    36 OT SD       0.10E+00   16.3     0.00000168     -5734.5639336484 -2.61E-06
    37 OT SD       0.10E+00   17.2     0.00000183     -5734.5639362236 -2.58E-06
    38 OT SD       0.10E+00   17.0     0.00000234     -5734.5639385663 -2.34E-06
    39 OT SD       0.10E+00   17.8     0.00000381     -5734.5639398237 -1.26E-06
    40 OT DIIS     0.10E+00   18.6     0.00000731     -5734.5639362505  3.57E-06
    41 OT SD       0.10E+00   16.7     0.00000158     -5734.5639295615  6.69E-06
    42 OT SD       0.10E+00   16.7     0.00000158     -5734.5639320760 -2.51E-06
    43 OT SD       0.10E+00   16.6     0.00000159     -5734.5639345978 -2.52E-06
    44 OT SD       0.10E+00   16.9     0.00000159     -5734.5639371276 -2.53E-06
    45 OT SD       0.10E+00   16.6     0.00000161     -5734.5639396634 -2.54E-06
    46 OT SD       0.10E+00   16.1     0.00000166     -5734.5639421939 -2.53E-06
    47 OT SD       0.10E+00   17.6     0.00000182     -5734.5639446712 -2.48E-06
    48 OT SD       0.10E+00   17.3     0.00000234     -5734.5639469036 -2.23E-06
    49 OT SD       0.10E+00   16.4     0.00000371     -5734.5639481209 -1.22E-06
    50 OT SD       0.10E+00   20.1     0.00000687     -5734.5639451794  2.94E-06
    51 OT DIIS     0.10E+00   16.4     0.00001358     -5734.5639250420  2.01E-05
    52 OT SD       0.10E+00   18.9     0.00000156     -5734.5639166210  8.42E-06
    53 OT SD       0.10E+00   15.2     0.00000156     -5734.5639190767 -2.46E-06
    54 OT SD       0.10E+00   16.6     0.00000157     -5734.5639215370 -2.46E-06
    55 OT SD       0.10E+00   20.0     0.00000157     -5734.5639240031 -2.47E-06
    56 OT SD       0.10E+00   16.3     0.00000159     -5734.5639264733 -2.47E-06
    57 OT SD       0.10E+00   16.6     0.00000165     -5734.5639289355 -2.46E-06
    58 OT SD       0.10E+00   18.9     0.00000184     -5734.5639313352 -2.40E-06
    59 OT SD       0.10E+00   18.6     0.00000241     -5734.5639334545 -2.12E-06
    60 OT SD       0.10E+00   18.0     0.00000390     -5734.5639344248 -9.70E-07
    61 OT DIIS     0.10E+00   16.0     0.00000724     -5734.5639307584  3.67E-06
    62 OT SD       0.10E+00   18.6     0.00000154     -5734.5639288235  1.93E-06
    63 OT SD       0.10E+00   17.1     0.00000155     -5734.5639312288 -2.41E-06
    64 OT SD       0.10E+00   16.7     0.00000155     -5734.5639336408 -2.41E-06
    65 OT SD       0.10E+00   16.1     0.00000156     -5734.5639360595 -2.42E-06
    66 OT SD       0.10E+00   16.8     0.00000158     -5734.5639384811 -2.42E-06
    67 OT SD       0.10E+00   15.3     0.00000166     -5734.5639408849 -2.40E-06
    68 OT SD       0.10E+00   15.4     0.00000194     -5734.5639431795 -2.29E-06
    69 OT SD       0.10E+00   17.1     0.00000282     -5734.5639449633 -1.78E-06
    70 OT SD       0.10E+00   17.2     0.00000513     -5734.5639444678  4.95E-07
    71 OT SD       0.10E+00   17.6     0.00001035     -5734.5639338462  1.06E-05
    72 OT DIIS     0.10E+00   16.9     0.00002162     -5734.5638780302  5.58E-05
    73 OT SD       0.10E+00   17.3     0.00000153     -5734.5639127777 -3.47E-05
    74 OT SD       0.10E+00   17.8     0.00000153     -5734.5639151309 -2.35E-06
    75 OT SD       0.10E+00   17.6     0.00000153     -5734.5639174865 -2.36E-06
    76 OT SD       0.10E+00   18.5     0.00000154     -5734.5639198457 -2.36E-06
    77 OT SD       0.10E+00   16.0     0.00000155     -5734.5639222081 -2.36E-06
    78 OT SD       0.10E+00   17.8     0.00000158     -5734.5639245691 -2.36E-06
    79 OT SD       0.10E+00   16.5     0.00000167     -5734.5639269062 -2.34E-06
    80 OT DIIS     0.10E+00   19.3     0.00000195     -5734.5639291335 -2.23E-06
[...]
    49 OT SD       0.10E+00   16.4     0.00000251     -5734.5644039950 -4.66E-07
    50 OT SD       0.10E+00   16.1     0.00000447     -5734.5644027438  1.25E-06
    51 OT DIIS     0.10E+00   17.8     0.00000846     -5734.5643950264  7.72E-06
    52 OT SD       0.10E+00   16.3     0.00000105     -5734.5643937375  1.29E-06
    53 OT SD       0.10E+00   16.7     0.00000105     -5734.5643948453 -1.11E-06
    54 OT SD       0.10E+00   17.8     0.00000105     -5734.5643959530 -1.11E-06
    55 OT SD       0.10E+00   16.9     0.00000105     -5734.5643970604 -1.11E-06
    56 OT SD       0.10E+00   17.1     0.00000106     -5734.5643981658 -1.11E-06
    57 OT SD       0.10E+00   17.6     0.00000109     -5734.5643992633 -1.10E-06
    58 OT SD       0.10E+00   16.6     0.00000120     -5734.5644003295 -1.07E-06
    59 OT SD       0.10E+00   17.5     0.00000157     -5734.5644012698 -9.40E-07
    60 OT SD       0.10E+00   16.9     0.00000256     -5734.5644016972 -4.27E-07
    61 OT DIIS     0.10E+00   17.2     0.00000485     -5734.5643999995  1.70E-06
    62 OT SD       0.10E+00   18.1     0.00000105     -5734.5643968484  3.15E-06
    63 OT SD       0.10E+00   15.5     0.00000105     -5734.5643979547 -1.11E-06
    64 OT SD       0.10E+00   18.7     0.00000105     -5734.5643990608 -1.11E-06
    65 OT SD       0.10E+00   17.6     0.00000105     -5734.5644001665 -1.11E-06
    66 OT SD       0.10E+00   17.2     0.00000106     -5734.5644012696 -1.10E-06
    67 OT SD       0.10E+00   17.8     0.00000110     -5734.5644023616 -1.09E-06
    68 OT SD       0.10E+00   19.6     0.00000127     -5734.5644034056 -1.04E-06
    69 OT SD       0.10E+00   18.4     0.00000181     -5734.5644042416 -8.36E-07
    70 OT SD       0.10E+00   17.3     0.00000325     -5734.5644041662  7.54E-08
    71 OT DIIS     0.10E+00   16.3     0.00000653     -5734.5644000647  4.10E-06
    72 OT SD       0.10E+00   17.3     0.00000105     -5734.5643964569  3.61E-06
    73 OT SD       0.10E+00   16.9     0.00000105     -5734.5643975616 -1.10E-06
    74 OT SD       0.10E+00   17.6     0.00000105     -5734.5643986662 -1.10E-06
    75 OT SD       0.10E+00   17.2     0.00000105     -5734.5643997706 -1.10E-06
    76 OT SD       0.10E+00   17.5     0.00000106     -5734.5644008731 -1.10E-06
    77 OT SD       0.10E+00   18.8     0.00000109     -5734.5644019674 -1.09E-06
    78 OT SD       0.10E+00   19.6     0.00000121     -5734.5644030270 -1.06E-06
    79 OT SD       0.10E+00   17.0     0.00000163     -5734.5644039376 -9.11E-07
    80 OT SD       0.10E+00   16.6     0.00000279     -5734.5644042042 -2.67E-07
    81 OT DIIS     0.10E+00   17.2     0.00000550     -5734.5644016582  2.55E-06
    82 OT DIIS     0.10E+00   18.0     0.00000105     -5734.5643982975  3.36E-06
    83 OT SD       0.10E+00   19.5     0.00000105     -5734.5643990390 -7.42E-07
    84 OT SD       0.10E+00   17.3     0.00000105     -5734.5644001423 -1.10E-06
    85 OT SD       0.10E+00   18.4     0.00000105     -5734.5644012455 -1.10E-06
    86 OT SD       0.10E+00   19.3     0.00000105     -5734.5644023486 -1.10E-06
    87 OT SD       0.10E+00   18.2     0.00000106     -5734.5644034501 -1.10E-06
    88 OT SD       0.10E+00   17.3     0.00000108     -5734.5644045447 -1.09E-06
    89 OT SD       0.10E+00   20.3     0.00000118     -5734.5644056110 -1.07E-06
    90 OT SD       0.10E+00   20.3     0.00000153     -5734.5644065599 -9.49E-07
    91 OT SD       0.10E+00   18.9     0.00000250     -5734.5644070203 -4.60E-07
    92 OT SD       0.10E+00   20.0     0.00000476     -5734.5644054172  1.60E-06
    93 OT DIIS     0.10E+00   16.4     0.00000964     -5734.5643949852  1.04E-05
    94 OT SD       0.10E+00   18.9     0.00000105     -5734.5643977980 -2.81E-06
    95 OT SD       0.10E+00   20.2     0.00000105     -5734.5643988998 -1.10E-06
    96 OT SD       0.10E+00   19.6     0.00000105     -5734.5644000016 -1.10E-06
    97 OT SD       0.10E+00   19.1     0.00000105     -5734.5644011033 -1.10E-06
    98 OT SD       0.10E+00   18.2     0.00000105     -5734.5644022043 -1.10E-06
    99 OT SD       0.10E+00   17.3     0.00000107     -5734.5644033023 -1.10E-06
   100 OT SD       0.10E+00   17.5     0.00000111     -5734.5644043891 -1.09E-06
   101 OT SD       0.10E+00   17.1     0.00000126     -5734.5644054323 -1.04E-06
   102 OT SD       0.10E+00   17.3     0.00000173     -5734.5644063015 -8.69E-07
   103 OT SD       0.10E+00   17.1     0.00000296     -5734.5644064516 -1.50E-07
   104 OT DIIS     0.10E+00   19.0     0.00000576     -5734.5644035485  2.90E-06
   105 OT SD       0.10E+00   17.1     0.00000104     -5734.5643997433  3.81E-06
   106 OT SD       0.10E+00   18.7     0.00000104     -5734.5644008437 -1.10E-06
   107 OT SD       0.10E+00   16.6     0.00000105     -5734.5644019440 -1.10E-06
   108 OT SD       0.10E+00   17.0     0.00000105     -5734.5644030439 -1.10E-06
   109 OT SD       0.10E+00   15.9     0.00000106     -5734.5644041413 -1.10E-06
   110 OT SD       0.10E+00   17.8     0.00000110     -5734.5644052281 -1.09E-06
   111 OT SD       0.10E+00   18.2     0.00000125     -5734.5644062694 -1.04E-06
   112 OT SD       0.10E+00   18.7     0.00000178     -5734.5644071130 -8.44E-07
   113 OT SD       0.10E+00   18.6     0.00000317     -5734.5644070900  2.31E-08
   114 OT DIIS     0.10E+00   18.7     0.00000638     -5734.5644032290  3.86E-06
   115 OT DIIS     0.10E+00   17.8     0.00000104     -5734.5644001082  3.12E-06
   116 OT SD       0.10E+00   16.8     0.00000104     -5734.5644002410 -1.33E-07
   117 OT DIIS     0.10E+00   16.7     0.00000104     -5734.5644013400 -1.10E-06
   118 OT SD       0.10E+00   17.0     0.00000104     -5734.5644017814 -4.41E-07
   119 OT SD       0.10E+00   18.6     0.00000104     -5734.5644028807 -1.10E-06
   120 OT SD       0.10E+00   17.3     0.00000104     -5734.5644039802 -1.10E-06

  Leaving inner SCF loop after reaching   120 steps.


  Electronic density on regular grids:      -2111.9999999842        0.0000000158
  Core density on regular grids:             2111.9999999991       -0.0000000009
  Total charge density on r-space grids:        0.0000000149
  Total charge density g-space grids:           0.0000000149

  Overlap energy of the core charge distribution:               0.02247140509388
  Self energy of the core charge distribution:             -13908.04008471225097
  Core Hamiltonian energy:                                   3762.38146885532296
  Hartree energy:                                            5555.57076959613369
  Exchange-correlation energy:                              -1141.48502605237445
  Dispersion energy:                                           -3.01400307214614

  Total energy:                                             -5734.56440398022005

  outer SCF iter =   20 RMS gradient =   0.10E-05 energy =      -5734.5644039802

  ----------------------------------- OT ---------------------------------------
  Minimizer      : DIIS                : direct inversion
                                         in the iterative subspace
                                         using   7 DIIS vectors
                                         safer DIIS on
  Preconditioner : FULL_SINGLE_INVERSE : inversion of 
                                         H + eS - 2*(Sc)(c^T*H*c+const)(Sc)^T
  Precond_solver : INVERSE_UPDATE
  stepsize       :    0.10000000                  energy_gap     :    0.10000000
  eps_taylor     :   0.10000E-15                  max_taylor     :             4
  ----------------------------------- OT ---------------------------------------

  Step     Update method      Time    Convergence         Total energy    Change
  ------------------------------------------------------------------------------


     Lanczos converged:  T threshold:   0.100E-02
     Est. extremal eigenvalues:    0.101E+01   0.987E+00
     Est. condition number :    0.102E+01
     Hotelling iter   1 1.00000000   0.366E-02       3.216   134846.772



     Lanczos converged:  T threshold:   0.100E-02
     Est. extremal eigenvalues:    0.998E+00   0.998E+00
     Est. condition number :    0.100E+01
     Hotelling iter   1 1.00000000   0.250E-02       2.305   188071.882

     1 OT DIIS     0.10E+00   63.2     0.00000104     -5734.5644050801 -1.10E-06
     2 OT DIIS     0.10E+00   16.4     0.00000105     -5734.5644061802 -1.10E-06
     3 OT SD       0.10E+00   17.5     0.00000104     -5734.5644064546 -2.74E-07
     4 OT SD       0.10E+00   17.1     0.00000105     -5734.5644075555 -1.10E-06
     5 OT SD       0.10E+00   17.7     0.00000105     -5734.5644086570 -1.10E-06
     6 OT SD       0.10E+00   16.6     0.00000105     -5734.5644097589 -1.10E-06
     7 OT SD       0.10E+00   17.0     0.00000106     -5734.5644108600 -1.10E-06
     8 OT SD       0.10E+00   16.8     0.00000109     -5734.5644119542 -1.09E-06
     9 OT SD       0.10E+00   17.1     0.00000121     -5734.5644130145 -1.06E-06
    10 OT SD       0.10E+00   17.0     0.00000164     -5734.5644139225 -9.08E-07
    11 OT SD       0.10E+00   19.0     0.00000284     -5734.5644141552 -2.33E-07
    12 OT SD       0.10E+00   18.3     0.00000565     -5734.5644113961  2.76E-06
    13 OT DIIS     0.10E+00   18.7     0.00001174     -5734.5643953360  1.61E-05
    14 OT DIIS     0.10E+00   18.3     0.00000104     -5734.5643980237 -2.69E-06
    15 OT SD       0.10E+00   15.0     0.00000104     -5734.5644003310 -2.31E-06
    16 OT SD       0.10E+00   17.8     0.00000104     -5734.5644014284 -1.10E-06
    17 OT SD       0.10E+00   17.3     0.00000104     -5734.5644025259 -1.10E-06
    18 OT SD       0.10E+00   16.7     0.00000104     -5734.5644036234 -1.10E-06
    19 OT SD       0.10E+00   18.1     0.00000105     -5734.5644047207 -1.10E-06
    20 OT SD       0.10E+00   16.9     0.00000105     -5734.5644058169 -1.10E-06
    21 OT SD       0.10E+00   19.4     0.00000107     -5734.5644069076 -1.09E-06
    22 OT SD       0.10E+00   19.2     0.00000116     -5734.5644079737 -1.07E-06
    23 OT SD       0.10E+00   18.0     0.00000149     -5734.5644089317 -9.58E-07
    24 OT SD       0.10E+00   17.1     0.00000245     -5734.5644094118 -4.80E-07
    25 OT SD       0.10E+00   17.4     0.00000479     -5734.5644077686  1.64E-06
    26 OT DIIS     0.10E+00   17.0     0.00000993     -5734.5643966316  1.11E-05
    27 OT SD       0.10E+00   16.6     0.00000104     -5734.5644015594 -4.93E-06
    28 OT SD       0.10E+00   17.9     0.00000104     -5734.5644026554 -1.10E-06
    29 OT SD       0.10E+00   17.4     0.00000104     -5734.5644037514 -1.10E-06
    30 OT SD       0.10E+00   17.0     0.00000105     -5734.5644048468 -1.10E-06
    31 OT SD       0.10E+00   17.3     0.00000106     -5734.5644059401 -1.09E-06
    32 OT SD       0.10E+00   17.2     0.00000109     -5734.5644070250 -1.08E-06
    33 OT SD       0.10E+00   18.0     0.00000121     -5734.5644080768 -1.05E-06
    34 OT SD       0.10E+00   16.5     0.00000159     -5734.5644089970 -9.20E-07
    35 OT SD       0.10E+00   17.1     0.00000260     -5734.5644093834 -3.86E-07
    36 OT SD       0.10E+00   19.6     0.00000493     -5734.5644075671  1.82E-06
    37 OT DIIS     0.10E+00   17.2     0.00000989     -5734.5643965315  1.10E-05
    38 OT SD       0.10E+00   17.5     0.00000104     -5734.5644027073 -6.18E-06
    39 OT DIIS     0.10E+00   17.8     0.00000104     -5734.5644038019 -1.09E-06
    40 OT DIIS     0.10E+00   17.1     0.00000104     -5734.5644038912 -8.93E-08
    41 OT SD       0.10E+00   17.6     0.00000104     -5734.5644042904 -3.99E-07
    42 OT SD       0.10E+00   17.4     0.00000104     -5734.5644053852 -1.09E-06
    43 OT SD       0.10E+00   17.4     0.00000104     -5734.5644064802 -1.09E-06
    44 OT SD       0.10E+00   17.1     0.00000104     -5734.5644075753 -1.10E-06
    45 OT SD       0.10E+00   17.6     0.00000104     -5734.5644086703 -1.09E-06
    46 OT SD       0.10E+00   17.5     0.00000105     -5734.5644097636 -1.09E-06
    47 OT SD       0.10E+00   17.2     0.00000109     -5734.5644108482 -1.08E-06
    48 OT SD       0.10E+00   16.9     0.00000123     -5734.5644118926 -1.04E-06
    49 OT SD       0.10E+00   16.9     0.00000173     -5734.5644127518 -8.59E-07
    50 OT SD       0.10E+00   17.0     0.00000312     -5734.5644127642 -1.24E-08
    51 OT DIIS     0.10E+00   17.1     0.00000637     -5734.5644089013  3.86E-06
    52 OT SD       0.10E+00   17.1     0.00000104     -5734.5644031884  5.71E-06
    53 OT SD       0.10E+00   16.9     0.00000104     -5734.5644042818 -1.09E-06
    54 OT SD       0.10E+00   16.3     0.00000104     -5734.5644053753 -1.09E-06
    55 OT SD       0.10E+00   16.9     0.00000104     -5734.5644064687 -1.09E-06
    56 OT SD       0.10E+00   16.8     0.00000105     -5734.5644075618 -1.09E-06
    57 OT SD       0.10E+00   18.0     0.00000106     -5734.5644086530 -1.09E-06
    58 OT SD       0.10E+00   17.2     0.00000108     -5734.5644097373 -1.08E-06
    59 OT SD       0.10E+00   17.7     0.00000117     -5734.5644107977 -1.06E-06
    60 OT SD       0.10E+00   17.2     0.00000144     -5734.5644117735 -9.76E-07
    61 OT SD       0.10E+00   17.4     0.00000212     -5734.5644124467 -6.73E-07
    62 OT SD       0.10E+00   17.7     0.00000365     -5734.5644120151  4.32E-07
    63 OT DIIS     0.10E+00   20.1     0.00000679     -5734.5644074842  4.53E-06
    64 OT SD       0.10E+00   19.4     0.00000104     -5734.5644049997  2.48E-06
    65 OT SD       0.10E+00   17.3     0.00000104     -5734.5644060918 -1.09E-06
    66 OT SD       0.10E+00   15.9     0.00000104     -5734.5644071840 -1.09E-06
    67 OT SD       0.10E+00   17.7     0.00000104     -5734.5644082760 -1.09E-06
    68 OT SD       0.10E+00   16.5     0.00000105     -5734.5644093672 -1.09E-06
    69 OT SD       0.10E+00   17.7     0.00000106     -5734.5644104549 -1.09E-06
    70 OT SD       0.10E+00   17.7     0.00000112     -5734.5644115275 -1.07E-06
    71 OT SD       0.10E+00   17.1     0.00000133     -5734.5644125367 -1.01E-06
    72 OT SD       0.10E+00   18.1     0.00000198     -5734.5644132758 -7.39E-07
    73 OT SD       0.10E+00   16.9     0.00000364     -5734.5644128433  4.32E-07
    74 OT DIIS     0.10E+00   17.3     0.00000737     -5734.5644072558  5.59E-06
    75 OT SD       0.10E+00   16.9     0.00000104     -5734.5644052535  2.00E-06
    76 OT SD       0.10E+00   17.0     0.00000104     -5734.5644063442 -1.09E-06
    77 OT SD       0.10E+00   17.5     0.00000104     -5734.5644074349 -1.09E-06
    78 OT SD       0.10E+00   17.1     0.00000105     -5734.5644085249 -1.09E-06
    79 OT SD       0.10E+00   17.3     0.00000106     -5734.5644096124 -1.09E-06
    80 OT SD       0.10E+00   18.6     0.00000110     -5734.5644106899 -1.08E-06
    81 OT SD       0.10E+00   17.0     0.00000123     -5734.5644117280 -1.04E-06
    82 OT SD       0.10E+00   17.4     0.00000167     -5734.5644126074 -8.79E-07
    83 OT SD       0.10E+00   17.4     0.00000283     -5734.5644128352 -2.28E-07
    84 OT DIIS     0.10E+00   16.9     0.00000545     -5734.5644103355  2.50E-06
    85 OT DIIS     0.10E+00   18.5     0.00000104     -5734.5644063471  3.99E-06
    86 OT SD       0.10E+00   16.9     0.00000104     -5734.5644068890 -5.42E-07
    87 OT DIIS     0.10E+00   17.5     0.00000104     -5734.5644079784 -1.09E-06
    88 OT DIIS     0.10E+00   17.1     0.00000104     -5734.5644080297 -5.13E-08
    89 OT SD       0.10E+00   17.3     0.00000104     -5734.5644080842 -5.46E-08
    90 OT SD       0.10E+00   18.8     0.00000104     -5734.5644091737 -1.09E-06
    91 OT SD       0.10E+00   17.7     0.00000104     -5734.5644102633 -1.09E-06
    92 OT SD       0.10E+00   18.6     0.00000104     -5734.5644113530 -1.09E-06
    93 OT SD       0.10E+00   18.6     0.00000104     -5734.5644124422 -1.09E-06
    94 OT SD       0.10E+00   17.7     0.00000106     -5734.5644135280 -1.09E-06
    95 OT SD       0.10E+00   17.4     0.00000112     -5734.5644145977 -1.07E-06
    96 OT SD       0.10E+00   16.6     0.00000136     -5734.5644155932 -9.95E-07
    97 OT SD       0.10E+00   19.8     0.00000214     -5734.5644162484 -6.55E-07
    98 OT SD       0.10E+00   16.8     0.00000412     -5734.5644153440  9.04E-07
    99 OT DIIS     0.10E+00   17.5     0.00000861     -5734.5644072740  8.07E-06
   100 OT SD       0.10E+00   16.3     0.00000104     -5734.5644070366  2.37E-07
   101 OT SD       0.10E+00   17.9     0.00000104     -5734.5644081247 -1.09E-06
   102 OT SD       0.10E+00   17.6     0.00000104     -5734.5644092127 -1.09E-06
   103 OT SD       0.10E+00   17.6     0.00000104     -5734.5644103005 -1.09E-06
   104 OT SD       0.10E+00   17.6     0.00000105     -5734.5644113864 -1.09E-06
   105 OT SD       0.10E+00   17.4     0.00000108     -5734.5644124655 -1.08E-06
   106 OT SD       0.10E+00   16.9     0.00000118     -5734.5644135172 -1.05E-06
   107 OT SD       0.10E+00   16.6     0.00000150     -5734.5644144611 -9.44E-07
   108 OT SD       0.10E+00   17.1     0.00000239     -5734.5644149713 -5.10E-07
   109 OT SD       0.10E+00   17.8     0.00000446     -5734.5644137055  1.27E-06
   110 OT DIIS     0.10E+00   18.2     0.00000888     -5734.5644050430  8.66E-06
   111 OT SD       0.10E+00   17.5     0.00000104     -5734.5644085132 -3.47E-06
   112 OT SD       0.10E+00   19.3     0.00000104     -5734.5644095998 -1.09E-06
   113 OT SD       0.10E+00   19.0     0.00000104     -5734.5644106864 -1.09E-06
   114 OT SD       0.10E+00   17.4     0.00000104     -5734.5644117725 -1.09E-06
   115 OT SD       0.10E+00   17.0     0.00000105     -5734.5644128560 -1.08E-06
   116 OT SD       0.10E+00   17.1     0.00000110     -5734.5644139284 -1.07E-06
   117 OT SD       0.10E+00   17.2     0.00000126     -5734.5644149534 -1.03E-06
   118 OT SD       0.10E+00   16.8     0.00000179     -5734.5644157744 -8.21E-07
   119 OT SD       0.10E+00   16.6     0.00000321     -5734.5644157061  6.83E-08
   120 OT DIIS     0.10E+00   16.6     0.00000644     -5734.5644117215  3.98E-06

  Leaving inner SCF loop after reaching   120 steps.


  Electronic density on regular grids:      -2111.9999999841        0.0000000159
  Core density on regular grids:             2111.9999999991       -0.0000000009
  Total charge density on r-space grids:        0.0000000150
  Total charge density g-space grids:           0.0000000150

  Overlap energy of the core charge distribution:               0.02247140509388
  Self energy of the core charge distribution:             -13908.04008471225097
  Core Hamiltonian energy:                                   3762.38145623417859
  Hartree energy:                                            5555.57076742001209
  Exchange-correlation energy:                              -1141.48501899636767
  Dispersion energy:                                           -3.01400307214614

  Total energy:                                             -5734.56441172148061

  outer SCF iter =   21 RMS gradient =   0.64E-05 energy =      -5734.5644117215
  outer SCF loop FAILED to converge after   21 iterations or 2520 steps


 *******************************************************************************
 *   ___                                                                       *
 *  /   \                                                                      *
 * [ABORT]                                                                     *
 *  \___/     SCF run NOT converged. To continue the calculation regardless,   *
 *    |             please set the keyword IGNORE_CONVERGENCE_FAILURE.         *
 *  O/|                                                                        *
 * /| |                                                                        *
 * / \                                                            qs_scf.F:642 *
 *******************************************************************************


 ===== Routine Calling Stack ===== 

            7 scf_env_do_scf
            6 qs_energies
            5 qs_forces
            4 cp_eval_at
            3 geoopt_bfgs
            2 cp_geo_opt
            1 CP2K
