 DBCSR| CPU Multiplication driver                                           XSMM (U)
 DBCSR| Multrec recursion limit                                              512 (U)
 DBCSR| Multiplication stack size                                           1000 (D)
 DBCSR| Maximum elements for images                                    UNLIMITED (U)
 DBCSR| Multiplicative factor virtual images                                   1 (U)
 DBCSR| Use multiplication densification                                       T (D)
 DBCSR| Multiplication size stacks                                             3 (U)
 DBCSR| Use memory pool for CPU allocation                                     F (U)
 DBCSR| Number of 3D layers                                               SINGLE (U)
 DBCSR| Use MPI memory allocation                                              F (U)
 DBCSR| Use RMA algorithm                                                      F (U)
 DBCSR| Use Communication thread                                               T (U)
 DBCSR| Communication thread load                                             30 (D)
 DBCSR| MPI: My process id                                                     0
 DBCSR| MPI: Number of processes                                               1
 DBCSR| OMP: Current number of threads                                        16
 DBCSR| OMP: Max number of threads                                            16
 DBCSR| Split modifier for TAS multiplication algorithm                  1.0E+00 (U)


  **** **** ******  **  PROGRAM STARTED AT               2026-01-21 16:42:50.755
 ***** ** ***  *** **   PROGRAM STARTED ON                          4808cd4eed3d
 **    ****   ******    PROGRAM STARTED BY                             <unknown>
 ***** **    ** ** **   PROGRAM PROCESS ID                                   678
  **** **  *******  **  PROGRAM STARTED IN                             /mnt/cp2k

 CP2K| version string:                 CP2K version 2026.1 (Development Version)
 CP2K| source code revision number:                                   4e96ea1a00
 CP2K| cp2kflags: omp libint fftw3 libxc elpa parallel scalapack mpi_f08 cosma a
 CP2K|            ce deepmd xsmm dbcsr_acc plumed2 spglib libdftd4 mctc-lib tbli
 CP2K|            ite sirius libvori libbqb libtorch mimic offload_cuda libvdwxc
 CP2K|            c hdf5 trexio libsmeagol greenx
 CP2K| is freely available from                            https://www.cp2k.org/
 CP2K| Program compiled at                                   2026-01-16 05:48:39
 CP2K| Program compiled on                                                      
 CP2K| Program compiled for                                               x86_64
 CP2K| Data directory path                     /opt/cp2k/install/share/cp2k/data
 CP2K| Input file name                                               geo_opt.inp

 GLOBAL| Force Environment number                                              1
 GLOBAL| Basis set file name                                    BASIS_MOLOPT_UZH
 GLOBAL| Potential file name                                       POTENTIAL_UZH
 GLOBAL| MM Potential file name                                     MM_POTENTIAL
 GLOBAL| Coordinate file name              conventional_cell_slab_020_L1_2x2.xyz
 GLOBAL| Method name                                                        CP2K
 GLOBAL| Project name                                         gypsum_slab_geoopt
 GLOBAL| Run type                                                        GEO_OPT
 GLOBAL| FFT library                                                       FFTW3
 GLOBAL| Diagonalization library                                            ELPA
 GLOBAL| Cholesky decomposition library                                ScaLAPACK
 GLOBAL| DGEMM library                                                      BLAS
 GLOBAL| Minimum number of eigenvectors for ELPA usage                        16
 GLOBAL| Orthonormality check for eigenvectors                          DISABLED
 GLOBAL| Matrix multiplication library                                     COSMA
 GLOBAL| All-to-all communication in single precision                          F
 GLOBAL| FFTs using library dependent lengths                                  F
 GLOBAL| Grid backend                                                       AUTO
 GLOBAL| Global print level                                                  LOW
 GLOBAL| MPI I/O enabled                                                       T
 GLOBAL| Total number of message passing processes                             1
 GLOBAL| Number of distributed systems (nodes)                                 1
 GLOBAL| Number of threads for this process                                   16
 GLOBAL| This output is from process                                           0
 GLOBAL| OpenMP stack size per thread (OMP_STACKSIZE)                        16M
 GLOBAL| CPU model name                           Intel(R) Core(TM) Ultra 7 265K
 GLOBAL| CPUID                                                              1002

 MEMORY| system memory details [Kb]
 MEMORY|                        rank 0           min           max       average
 MEMORY| MemTotal             32486564      32486564      32486564      32486564
 MEMORY| MemFree              12484768      12484768      12484768      12484768
 MEMORY| Buffers                 29616         29616         29616         29616
 MEMORY| Cached                1735808       1735808       1735808       1735808
 MEMORY| Slab                   174444        174444        174444        174444
 MEMORY| SReclaimable            56456         56456         56456         56456
 MEMORY| MemLikelyFree        14306648      14306648      14306648      14306648


 GENERATE|  Preliminary Number of Bonds generated:                             0
 GENERATE|  Achieved consistency in connectivity generation.

 *******************************************************************************
 *******************************************************************************
 **                                                                           **
 **     #####                         ##              ##                      **
 **    ##   ##            ##          ##              ##                      **
 **   ##     ##                       ##            ######                    **
 **   ##     ##  ##   ##  ##   #####  ##  ##   ####   ##    #####    #####    **
 **   ##     ##  ##   ##  ##  ##      ## ##   ##      ##   ##   ##  ##   ##   **
 **   ##  ## ##  ##   ##  ##  ##      ####     ###    ##   ######   ######    **
 **    ##  ###   ##   ##  ##  ##      ## ##      ##   ##   ##       ##        **
 **     #######   #####   ##   #####  ##  ##  ####    ##    #####   ##        **
 **           ##                                                    ##        **
 **                                                                           **
 **                                                ... make the atoms dance   **
 **                                                                           **
 **            Copyright (C) by CP2K developers group (2000-2026)             **
 **                      J. Chem. Phys. 152, 194103 (2020)                    **
 **                                                                           **
 *******************************************************************************


 TOTAL NUMBERS AND MAXIMUM NUMBERS

  Total number of            - Atomic kinds:                                   4
                             - Atoms:                                        180
                             - Shell sets:                                   180
                             - Shells:                                       948
                             - Primitive Cartesian functions:                900
                             - Cartesian basis functions:                   2568
                             - Spherical basis functions:                   2388

  Maximum angular momentum of- Orbital basis functions:                        2
                             - Local part of the GTH pseudopotential:          2
                             - Non-local part of the GTH pseudopotential:      3


 SCF PARAMETERS         Density guess:                                    ATOMIC
                        --------------------------------------------------------
                        max_scf:                                             120
                        max_scf_history:                                       0
                        max_diis:                                              4
                        --------------------------------------------------------
                        eps_scf:                                        1.00E-06
                        eps_scf_history:                                0.00E+00
                        eps_diis:                                       0.00E+00
                        eps_eigval:                                     1.00E-05
                        --------------------------------------------------------
                        level_shift [a.u.]:                             0.000000
                        --------------------------------------------------------
                        Outer loop SCF in use 
                        No variables optimised in outer loop
                        eps_scf                                         1.00E-06
                        max_scf                                               20
                        No outer loop optimization
                        step_size                                       5.00E-01

 BFGS| Use rational function optimization for step estimation:                NO
 BFGS| Use model Hessian for initial guess:                                  YES
 BFGS| Restart Hessian:                                                       NO
 BFGS| Trust radius:                                                       0.472

 *******************************************************************************
 ***                     STARTING GEOMETRY OPTIMIZATION                      ***
 ***                                   BFGS                                  ***
 *******************************************************************************

 Extrapolation method: initial_guess

 Spin 1

 Number of electrons:                                                        528
 Number of occupied orbitals:                                                528
 Number of molecular orbitals:                                               528

 Spin 2

 Number of electrons:                                                        528
 Number of occupied orbitals:                                                528
 Number of molecular orbitals:                                               528

 Number of orbital functions:                                               2388
 Number of independent orbital functions:                                   2388


 SCF WAVEFUNCTION OPTIMIZATION

  ----------------------------------- OT ---------------------------------------
  Minimizer      : DIIS                : direct inversion
                                         in the iterative subspace
                                         using   7 DIIS vectors
                                         safer DIIS on
  Preconditioner : FULL_SINGLE_INVERSE : inversion of 
                                         H + eS - 2*(Sc)(c^T*H*c+const)(Sc)^T
  Precond_solver : INVERSE_UPDATE
  stepsize       :    0.10000000                  energy_gap     :    0.10000000
  eps_taylor     :   0.10000E-15                  max_taylor     :             4
  ----------------------------------- OT ---------------------------------------

  Step     Update method      Time    Convergence         Total energy    Change
  ------------------------------------------------------------------------------
     1 OT DIIS     0.10E+00   18.5     0.01320301     -2775.5135335691 -2.78E+03
     2 OT DIIS     0.10E+00    5.8     0.00836085     -2806.6744045042 -3.12E+01
     3 OT DIIS     0.10E+00    6.5     0.00655444     -2822.0206428344 -1.53E+01
     4 OT DIIS     0.10E+00   13.1     0.00475257     -2840.0990112143 -1.81E+01
     5 OT DIIS     0.10E+00    5.2     0.00386302     -2848.9571037142 -8.86E+00
     6 OT DIIS     0.10E+00    5.9     0.00291209     -2856.2871377628 -7.33E+00
     7 OT DIIS     0.10E+00   11.7     0.00218887     -2861.8819515622 -5.59E+00
     8 OT DIIS     0.10E+00    6.7     0.00160766     -2865.8424601922 -3.96E+00
     9 OT DIIS     0.10E+00    9.2     0.00116712     -2868.3930618371 -2.55E+00
    10 OT DIIS     0.10E+00    6.3     0.00110989     -2869.1214376447 -7.28E-01
    11 OT DIIS     0.10E+00    5.8     0.00083305     -2870.0368516629 -9.15E-01
    12 OT DIIS     0.10E+00    9.7     0.00069400     -2870.6226047713 -5.86E-01
    13 OT DIIS     0.10E+00    5.5     0.00054947     -2871.1517712922 -5.29E-01
    14 OT DIIS     0.10E+00    6.1     0.00044423     -2871.4284570908 -2.77E-01
    15 OT DIIS     0.10E+00    9.8     0.00034881     -2871.7376860221 -3.09E-01
    16 OT DIIS     0.10E+00    5.5     0.00029605     -2871.8668327091 -1.29E-01
    17 OT DIIS     0.10E+00    6.3     0.00024602     -2872.0066290897 -1.40E-01
    18 OT DIIS     0.10E+00    9.3     0.00021074     -2872.0700327033 -6.34E-02
    19 OT DIIS     0.10E+00    5.6     0.00019393     -2872.1114857059 -4.15E-02
    20 OT DIIS     0.10E+00    6.0     0.00015620     -2872.1680316445 -5.65E-02
    21 OT DIIS     0.10E+00    6.8     0.00013411     -2872.2062449122 -3.82E-02
    22 OT DIIS     0.10E+00    5.8     0.00011471     -2872.2362598622 -3.00E-02
    23 OT DIIS     0.10E+00   10.5     0.00010136     -2872.2580494454 -2.18E-02
    24 OT DIIS     0.10E+00    5.3     0.00008610     -2872.2737618667 -1.57E-02
    25 OT DIIS     0.10E+00    6.2     0.00008205     -2872.2840436406 -1.03E-02
    26 OT DIIS     0.10E+00    6.4     0.00006801     -2872.2973448182 -1.33E-02
    27 OT DIIS     0.10E+00    5.5     0.00006231     -2872.3045782667 -7.23E-03
    28 OT DIIS     0.10E+00    6.3     0.00005451     -2872.3159620956 -1.14E-02
    29 OT DIIS     0.10E+00   15.0     0.00005036     -2872.3201738313 -4.21E-03
    30 OT DIIS     0.10E+00    6.0     0.00004616     -2872.3274028690 -7.23E-03
    31 OT DIIS     0.10E+00    6.0     0.00004248     -2872.3316967470 -4.29E-03
    32 OT DIIS     0.10E+00   11.8     0.00003914     -2872.3371401011 -5.44E-03
    33 OT DIIS     0.10E+00    6.1     0.00003630     -2872.3409746666 -3.83E-03
    34 OT DIIS     0.10E+00    8.9     0.00003329     -2872.3458914174 -4.92E-03
    35 OT DIIS     0.10E+00    5.7     0.00003091     -2872.3488860382 -2.99E-03
    36 OT DIIS     0.10E+00    6.1     0.00002877     -2872.3525663172 -3.68E-03
    37 OT DIIS     0.10E+00   13.0     0.00002693     -2872.3548794776 -2.31E-03
    38 OT DIIS     0.10E+00    6.3     0.00002540     -2872.3575860637 -2.71E-03
    39 OT DIIS     0.10E+00   10.0     0.00002398     -2872.3595032116 -1.92E-03
    40 OT DIIS     0.10E+00    5.2     0.00002266     -2872.3618088410 -2.31E-03
    41 OT DIIS     0.10E+00    6.8     0.00002144     -2872.3636719618 -1.86E-03
    42 OT DIIS     0.10E+00    9.3     0.00002052     -2872.3655770476 -1.91E-03
    43 OT DIIS     0.10E+00    6.5     0.00001965     -2872.3668977926 -1.32E-03
    44 OT DIIS     0.10E+00    9.9     0.00001905     -2872.3684663584 -1.57E-03
    45 OT DIIS     0.10E+00    6.0     0.00001838     -2872.3693801330 -9.14E-04
    46 OT DIIS     0.10E+00    5.7     0.00001774     -2872.3708404894 -1.46E-03
    47 OT DIIS     0.10E+00    8.6     0.00001705     -2872.3719280969 -1.09E-03
    48 OT DIIS     0.10E+00    6.0     0.00001623     -2872.3732620484 -1.33E-03
    49 OT DIIS     0.10E+00    6.8     0.00001571     -2872.3744946471 -1.23E-03
    50 OT DIIS     0.10E+00   15.0     0.00001459     -2872.3754720343 -9.77E-04
    51 OT DIIS     0.10E+00    5.9     0.00001540     -2872.3766171283 -1.15E-03
    52 OT DIIS     0.10E+00    5.5     0.00001346     -2872.3769995171 -3.82E-04
    53 OT DIIS     0.10E+00   12.0     0.00001287     -2872.3770493253 -4.98E-05
    54 OT DIIS     0.10E+00    4.1     0.00001250     -2872.3773002920 -2.51E-04
    55 OT DIIS     0.10E+00    4.3     0.00001204     -2872.3780247529 -7.24E-04
    56 OT DIIS     0.10E+00    4.1     0.00001183     -2872.3784167961 -3.92E-04
    57 OT DIIS     0.10E+00    5.0     0.00001156     -2872.3792534263 -8.37E-04
    58 OT DIIS     0.10E+00    6.3     0.00001139     -2872.3795171123 -2.64E-04
    59 OT DIIS     0.10E+00   11.6     0.00001089     -2872.3807651025 -1.25E-03
    60 OT DIIS     0.10E+00    5.9     0.00001051     -2872.3812569362 -4.92E-04
    61 OT DIIS     0.10E+00    8.3     0.00001027     -2872.3816598818 -4.03E-04
    62 OT DIIS     0.10E+00    5.8     0.00000994     -2872.3825341654 -8.74E-04
    63 OT DIIS     0.10E+00    6.1     0.00000981     -2872.3826324654 -9.83E-05
    64 OT DIIS     0.10E+00   10.4     0.00000941     -2872.3833803145 -7.48E-04
    65 OT DIIS     0.10E+00    5.6     0.00000972     -2872.3836255114 -2.45E-04
    66 OT DIIS     0.10E+00    5.5     0.00000904     -2872.3840589663 -4.33E-04
    67 OT DIIS     0.10E+00   11.2     0.00000893     -2872.3843464023 -2.87E-04
    68 OT DIIS     0.10E+00    5.1     0.00000867     -2872.3848894060 -5.43E-04
    69 OT DIIS     0.10E+00    6.2     0.00000846     -2872.3855465787 -6.57E-04
    70 OT DIIS     0.10E+00   10.9     0.00000837     -2872.3855783388 -3.18E-05
    71 OT DIIS     0.10E+00    5.2     0.00000813     -2872.3861792334 -6.01E-04
    72 OT DIIS     0.10E+00    5.8     0.00000834     -2872.3861918068 -1.26E-05
    73 OT DIIS     0.10E+00    9.9     0.00000787     -2872.3865248640 -3.33E-04
    74 OT DIIS     0.10E+00    7.0     0.00000774     -2872.3870459881 -5.21E-04
    75 OT DIIS     0.10E+00   12.9     0.00000746     -2872.3874344134 -3.88E-04
    76 OT DIIS     0.10E+00    5.2     0.00000770     -2872.3876549026 -2.20E-04
    77 OT DIIS     0.10E+00    5.8     0.00000729     -2872.3878874866 -2.33E-04
    78 OT DIIS     0.10E+00    7.8     0.00000833     -2872.3878792425  8.24E-06
    79 OT DIIS     0.10E+00    6.0     0.00000806     -2872.3879198846 -4.06E-05
    80 OT DIIS     0.10E+00    6.0     0.00000704     -2872.3883257393 -4.06E-04
    81 OT DIIS     0.10E+00   10.7     0.00000685     -2872.3889103331 -5.85E-04
    82 OT DIIS     0.10E+00    7.1     0.00000678     -2872.3893203423 -4.10E-04
    83 OT DIIS     0.10E+00   10.5     0.00000680     -2872.3894051551 -8.48E-05
    84 OT DIIS     0.10E+00    5.4     0.00000664     -2872.3895405498 -1.35E-04
    85 OT DIIS     0.10E+00    6.1     0.00000658     -2872.3896211326 -8.06E-05
    86 OT DIIS     0.10E+00    6.6     0.00000666     -2872.3898969664 -2.76E-04
    87 OT DIIS     0.10E+00    6.0     0.00000630     -2872.3901443347 -2.47E-04
    88 OT DIIS     0.10E+00    6.2     0.00000625     -2872.3904556951 -3.11E-04
    89 OT DIIS     0.10E+00   11.1     0.00000607     -2872.3907249993 -2.69E-04
    90 OT DIIS     0.10E+00    6.0     0.00000656     -2872.3908728430 -1.48E-04
    91 OT DIIS     0.10E+00    6.0     0.00000588     -2872.3911276014 -2.55E-04
    92 OT DIIS     0.10E+00   11.8     0.00000577     -2872.3913361089 -2.09E-04
    93 OT DIIS     0.10E+00    6.3     0.00000564     -2872.3916857235 -3.50E-04
    94 OT DIIS     0.10E+00   11.8     0.00000556     -2872.3918489054 -1.63E-04
    95 OT DIIS     0.10E+00    5.3     0.00000550     -2872.3919716968 -1.23E-04
    96 OT DIIS     0.10E+00    5.7     0.00000542     -2872.3921377254 -1.66E-04
    97 OT DIIS     0.10E+00    7.6     0.00000631     -2872.3922964740 -1.59E-04
    98 OT DIIS     0.10E+00    5.8     0.00000521     -2872.3926173359 -3.21E-04
    99 OT DIIS     0.10E+00    6.1     0.00000511     -2872.3929382406 -3.21E-04
   100 OT DIIS     0.10E+00   10.5     0.00000507     -2872.3930090495 -7.08E-05
   101 OT DIIS     0.10E+00    6.6     0.00000492     -2872.3933193385 -3.10E-04
   102 OT DIIS     0.10E+00    9.5     0.00000484     -2872.3934990415 -1.80E-04
   103 OT DIIS     0.10E+00    5.6     0.00000527     -2872.3936505961 -1.52E-04
   104 OT DIIS     0.10E+00    6.2     0.00000480     -2872.3939404079 -2.90E-04
   105 OT DIIS     0.10E+00   10.4     0.00000483     -2872.3939362728  4.14E-06
   106 OT DIIS     0.10E+00    5.5     0.00000450     -2872.3942252247 -2.89E-04
   107 OT SD       0.10E+00    6.1     0.00000501     -2872.3942552230 -3.00E-05
   108 OT SD       0.10E+00   11.6     0.00000472     -2872.3942613306 -6.11E-06
   109 OT SD       0.10E+00    6.7     0.00000459     -2872.3942668520 -5.52E-06
   110 OT DIIS     0.10E+00   10.1     0.00000452     -2872.3942721130 -5.26E-06
   111 OT DIIS     0.10E+00    6.7     0.00000433     -2872.3944542398 -1.82E-04
   112 OT DIIS     0.10E+00    4.3     0.00000431     -2872.3945587530 -1.05E-04
   113 OT DIIS     0.10E+00    4.1     0.00000423     -2872.3946847713 -1.26E-04
   114 OT DIIS     0.10E+00    4.2     0.00000416     -2872.3948195479 -1.35E-04
   115 OT DIIS     0.10E+00    6.3     0.00000418     -2872.3951033938 -2.84E-04
   116 OT DIIS     0.10E+00    5.8     0.00000401     -2872.3952738881 -1.70E-04
   117 OT DIIS     0.10E+00   11.1     0.00000398     -2872.3954019225 -1.28E-04
   118 OT DIIS     0.10E+00    6.3     0.00000438     -2872.3956465286 -2.45E-04
   119 OT DIIS     0.10E+00    9.1     0.00000383     -2872.3957205446 -7.40E-05
   120 OT SD       0.10E+00    5.3     0.00000390     -2872.3957512701 -3.07E-05

  Leaving inner SCF loop after reaching   120 steps.


  Electronic density on regular grids:      -1056.0000000021       -0.0000000021
  Core density on regular grids:             1055.9999999995       -0.0000000005
  Total charge density on r-space grids:       -0.0000000026
  Total charge density g-space grids:          -0.0000000026

  Overlap energy of the core charge distribution:               0.00001072146892
  Self energy of the core charge distribution:              -6954.02004235612549
  Core Hamiltonian energy:                                   1868.77887006332048
  Hartree energy:                                            2783.06899239721179
  Exchange-correlation energy:                               -568.73541914424925
  Dispersion energy:                                           -1.48816295173906

  Total energy:                                             -2872.39575127011176

  outer SCF iter =    1 RMS gradient =   0.39E-05 energy =      -2872.3957512701

  ----------------------------------- OT ---------------------------------------
  Minimizer      : DIIS                : direct inversion
                                         in the iterative subspace
                                         using   7 DIIS vectors
                                         safer DIIS on
  Preconditioner : FULL_SINGLE_INVERSE : inversion of 
                                         H + eS - 2*(Sc)(c^T*H*c+const)(Sc)^T
  Precond_solver : INVERSE_UPDATE
  stepsize       :    0.10000000                  energy_gap     :    0.10000000
  eps_taylor     :   0.10000E-15                  max_taylor     :             4
  ----------------------------------- OT ---------------------------------------

  Step     Update method      Time    Convergence         Total energy    Change
  ------------------------------------------------------------------------------


     Lanczos converged:  F threshold:   0.100E-02
     Est. extremal eigenvalues:    0.204E+02   0.480E-01
     Est. condition number :    0.425E+03
     Hotelling iter   1 1.00000000   0.991E+00       2.530    21525.832
     Hotelling iter   2 1.00000000   0.965E+00       0.728    74853.960
     Hotelling iter   3 1.00000000   0.869E+00       0.686    79404.818
     Hotelling iter   4 1.00000000   0.591E+00       0.359   151603.606
     Hotelling iter   5 1.00000000   0.176E+00       0.441   123555.827



     Lanczos converged:  F threshold:   0.100E-02
     Est. extremal eigenvalues:    0.204E+02   0.480E-01
     Est. condition number :    0.425E+03
     Hotelling iter   1 1.00000000   0.991E+00       2.690    20251.626
     Hotelling iter   2 1.00000000   0.965E+00       0.508   107122.492
     Hotelling iter   3 1.00000000   0.869E+00       0.678    80376.599
     Hotelling iter   4 1.00000000   0.591E+00       0.759    71759.898
     Hotelling iter   5 1.00000000   0.176E+00       0.730    74567.495

     1 OT DIIS     0.10E+00   33.4     0.00002426     -2872.3957550398 -3.77E-06
     2 OT DIIS     0.10E+00    5.6     0.00001984     -2872.3958840648 -1.29E-04
     3 OT DIIS     0.10E+00   10.1     0.00001785     -2872.3960026420 -1.19E-04
     4 OT DIIS     0.10E+00    4.9     0.00001478     -2872.3961282471 -1.26E-04
     5 OT DIIS     0.10E+00    5.5     0.00001323     -2872.3962473606 -1.19E-04
     6 OT DIIS     0.10E+00   10.2     0.00001283     -2872.3963111174 -6.38E-05
     7 OT DIIS     0.10E+00    4.6     0.00001210     -2872.3964255094 -1.14E-04
     8 OT DIIS     0.10E+00    5.6     0.00001181     -2872.3965412466 -1.16E-04
     9 OT DIIS     0.10E+00    9.1     0.00001149     -2872.3966604620 -1.19E-04
    10 OT DIIS     0.10E+00    5.0     0.00001101     -2872.3968734433 -2.13E-04
    11 OT DIIS     0.10E+00    5.3     0.00001066     -2872.3970883321 -2.15E-04
    12 OT DIIS     0.10E+00    8.0     0.00001030     -2872.3972816407 -1.93E-04
    13 OT DIIS     0.10E+00    5.0     0.00001000     -2872.3974897399 -2.08E-04
    14 OT DIIS     0.10E+00    5.4     0.00000964     -2872.3976799326 -1.90E-04
    15 OT DIIS     0.10E+00    8.9     0.00000925     -2872.3978607226 -1.81E-04
    16 OT DIIS     0.10E+00    5.0     0.00000882     -2872.3980156215 -1.55E-04
    17 OT DIIS     0.10E+00    5.7     0.00000849     -2872.3981637292 -1.48E-04
    18 OT DIIS     0.10E+00    8.4     0.00000823     -2872.3982794665 -1.16E-04
    19 OT DIIS     0.10E+00    6.0     0.00000795     -2872.3984007666 -1.21E-04
    20 OT DIIS     0.10E+00    7.0     0.00000770     -2872.3985012699 -1.01E-04
    21 OT DIIS     0.10E+00    7.2     0.00000754     -2872.3985700854 -6.88E-05
    22 OT DIIS     0.10E+00    5.7     0.00000736     -2872.3986431786 -7.31E-05
    23 OT DIIS     0.10E+00    9.3     0.00000720     -2872.3986964227 -5.32E-05
    24 OT DIIS     0.10E+00    5.6     0.00000705     -2872.3987606641 -6.42E-05
    25 OT DIIS     0.10E+00    6.1     0.00000693     -2872.3988043190 -4.37E-05
    26 OT DIIS     0.10E+00    7.4     0.00000684     -2872.3988433801 -3.91E-05
    27 OT DIIS     0.10E+00    5.6     0.00000677     -2872.3988789750 -3.56E-05
    28 OT DIIS     0.10E+00    6.3     0.00000670     -2872.3989174511 -3.85E-05
    29 OT DIIS     0.10E+00   10.6     0.00000665     -2872.3989513988 -3.39E-05
    30 OT DIIS     0.10E+00    6.0     0.00000660     -2872.3989842281 -3.28E-05
    31 OT DIIS     0.10E+00    5.6     0.00000654     -2872.3990112554 -2.70E-05
    32 OT DIIS     0.10E+00   11.6     0.00000649     -2872.3990485280 -3.73E-05
    33 OT DIIS     0.10E+00    6.7     0.00000644     -2872.3990807316 -3.22E-05
    34 OT DIIS     0.10E+00   10.2     0.00000639     -2872.3991189477 -3.82E-05
    35 OT DIIS     0.10E+00    5.7     0.00000634     -2872.3991594326 -4.05E-05
    36 OT DIIS     0.10E+00    6.4     0.00000628     -2872.3992004330 -4.10E-05
    37 OT DIIS     0.10E+00    7.6     0.00000624     -2872.3992365250 -3.61E-05
    38 OT DIIS     0.10E+00    5.5     0.00000620     -2872.3992870687 -5.05E-05
    39 OT DIIS     0.10E+00    6.3     0.00000614     -2872.3993226624 -3.56E-05
    40 OT DIIS     0.10E+00   14.4     0.00000605     -2872.3993869969 -6.43E-05
    41 OT DIIS     0.10E+00    6.1     0.00000598     -2872.3994320172 -4.50E-05
    42 OT DIIS     0.10E+00    8.7     0.00000592     -2872.3994767866 -4.48E-05
    43 OT DIIS     0.10E+00    6.5     0.00000586     -2872.3995228113 -4.60E-05
    44 OT DIIS     0.10E+00    6.1     0.00000580     -2872.3995661028 -4.33E-05
    45 OT DIIS     0.10E+00   10.5     0.00000576     -2872.3995970669 -3.10E-05
    46 OT DIIS     0.10E+00    6.0     0.00000572     -2872.3996345057 -3.74E-05
    47 OT DIIS     0.10E+00    6.0     0.00000568     -2872.3996555755 -2.11E-05
    48 OT DIIS     0.10E+00   11.9     0.00000563     -2872.3996895202 -3.39E-05
    49 OT DIIS     0.10E+00    4.1     0.00000561     -2872.3997108329 -2.13E-05
    50 OT DIIS     0.10E+00    4.2     0.00000559     -2872.3997283667 -1.75E-05
    51 OT DIIS     0.10E+00    4.2     0.00000558     -2872.3997435422 -1.52E-05
    52 OT DIIS     0.10E+00    5.1     0.00000558     -2872.3997543886 -1.08E-05
    53 OT DIIS     0.10E+00    6.2     0.00000558     -2872.3997584787 -4.09E-06
    54 OT DIIS     0.10E+00   13.7     0.00000558     -2872.3997610626 -2.58E-06
    55 OT DIIS     0.10E+00    5.9     0.00000558     -2872.3997647427 -3.68E-06
    56 OT DIIS     0.10E+00    5.9     0.00000557     -2872.3997756839 -1.09E-05
    57 OT DIIS     0.10E+00   11.5     0.00000557     -2872.3997808275 -5.14E-06
    58 OT DIIS     0.10E+00    6.4     0.00000558     -2872.3997847257 -3.90E-06
    59 OT SD       0.10E+00   10.6     0.00000558     -2872.3997883722 -3.65E-06
    60 OT SD       0.10E+00    5.3     0.00000559     -2872.3997962225 -7.85E-06
    61 OT DIIS     0.10E+00    5.7     0.00000561     -2872.3998041083 -7.89E-06
    62 OT DIIS     0.10E+00   11.9     0.00000554     -2872.3998123393 -8.23E-06
    63 OT DIIS     0.10E+00    6.6     0.00000550     -2872.3998929100 -8.06E-05
    64 OT DIIS     0.10E+00    8.9     0.00000546     -2872.3999454260 -5.25E-05
    65 OT DIIS     0.10E+00    6.9     0.00000543     -2872.4000045454 -5.91E-05
    66 OT DIIS     0.10E+00    5.7     0.00000523     -2872.4002601870 -2.56E-04
    67 OT DIIS     0.10E+00    9.6     0.00000527     -2872.4003327128 -7.25E-05
    68 OT DIIS     0.10E+00    5.6     0.00000502     -2872.4003837180 -5.10E-05
    69 OT DIIS     0.10E+00    6.2     0.00000498     -2872.4004760600 -9.23E-05
    70 OT DIIS     0.10E+00    9.5     0.00000494     -2872.4004849050 -8.84E-06
    71 OT DIIS     0.10E+00    5.6     0.00000495     -2872.4004876675 -2.76E-06
    72 OT DIIS     0.10E+00    6.3     0.00000490     -2872.4004992773 -1.16E-05
    73 OT DIIS     0.10E+00   11.6     0.00000489     -2872.4005417400 -4.25E-05
    74 OT SD       0.10E+00    6.5     0.00000489     -2872.4005429019 -1.16E-06
    75 OT DIIS     0.10E+00   10.0     0.00000490     -2872.4005489273 -6.03E-06
    76 OT DIIS     0.10E+00    6.2     0.00000487     -2872.4005587263 -9.80E-06
    77 OT DIIS     0.10E+00    5.8     0.00000482     -2872.4006238124 -6.51E-05
    78 OT DIIS     0.10E+00    9.6     0.00000481     -2872.4006679075 -4.41E-05
    79 OT DIIS     0.10E+00    5.8     0.00000476     -2872.4006932713 -2.54E-05
    80 OT SD       0.10E+00    6.1     0.00000475     -2872.4007279543 -3.47E-05
    81 OT SD       0.10E+00    9.5     0.00000476     -2872.4007336346 -5.68E-06
    82 OT SD       0.10E+00    6.8     0.00000478     -2872.4007393420 -5.71E-06
    83 OT SD       0.10E+00   11.8     0.00000482     -2872.4007450932 -5.75E-06
    84 OT SD       0.10E+00    5.2     0.00000487     -2872.4007509045 -5.81E-06
    85 OT SD       0.10E+00    5.8     0.00000495     -2872.4007567925 -5.89E-06
    86 OT SD       0.10E+00    7.2     0.00000510     -2872.4007627709 -5.98E-06
    87 OT DIIS     0.10E+00    5.9     0.00000534     -2872.4007688440 -6.07E-06
    88 OT DIIS     0.10E+00    5.9     0.00000457     -2872.4007741607 -5.32E-06
    89 OT DIIS     0.10E+00    9.1     0.00000455     -2872.4007874779 -1.33E-05
    90 OT DIIS     0.10E+00    5.5     0.00000454     -2872.4008006073 -1.31E-05
    91 OT DIIS     0.10E+00    6.0     0.00000450     -2872.4008665015 -6.59E-05
    92 OT DIIS     0.10E+00   13.4     0.00000449     -2872.4008955888 -2.91E-05
    93 OT SD       0.10E+00    6.0     0.00000449     -2872.4009142985 -1.87E-05
    94 OT SD       0.10E+00    5.5     0.00000449     -2872.4009193702 -5.07E-06
    95 OT SD       0.10E+00   11.2     0.00000450     -2872.4009244544 -5.08E-06
    96 OT SD       0.10E+00    6.1     0.00000451     -2872.4009295581 -5.10E-06
    97 OT DIIS     0.10E+00    9.5     0.00000452     -2872.4009346888 -5.13E-06
    98 OT DIIS     0.10E+00    5.4     0.00000443     -2872.4009628694 -2.82E-05
    99 OT DIIS     0.10E+00    6.1     0.00000440     -2872.4010048866 -4.20E-05
   100 OT DIIS     0.10E+00   10.2     0.00000439     -2872.4010567595 -5.19E-05
   101 OT DIIS     0.10E+00    6.2     0.00000435     -2872.4011062401 -4.95E-05
   102 OT DIIS     0.10E+00    9.6     0.00000432     -2872.4011661833 -5.99E-05
   103 OT DIIS     0.10E+00    5.7     0.00000433     -2872.4011835510 -1.74E-05
   104 OT DIIS     0.10E+00    6.1     0.00000431     -2872.4012133522 -2.98E-05
   105 OT DIIS     0.10E+00    9.7     0.00000430     -2872.4012175270 -4.17E-06
   106 OT DIIS     0.10E+00    4.6     0.00000431     -2872.4012248756 -7.35E-06
   107 OT SD       0.10E+00    4.2     0.00000431     -2872.4012304052 -5.53E-06
   108 OT SD       0.10E+00    4.4     0.00000432     -2872.4012350769 -4.67E-06
   109 OT DIIS     0.10E+00    4.3     0.00000433     -2872.4012397689 -4.69E-06
   110 OT DIIS     0.10E+00    5.7     0.00000427     -2872.4012448515 -5.08E-06
   111 OT DIIS     0.10E+00    9.8     0.00000425     -2872.4012715106 -2.67E-05
   112 OT DIIS     0.10E+00    5.9     0.00000429     -2872.4013813536 -1.10E-04
   113 OT DIIS     0.10E+00    6.0     0.00000415     -2872.4014242115 -4.29E-05
   114 OT DIIS     0.10E+00    7.2     0.00000414     -2872.4014724576 -4.82E-05
   115 OT DIIS     0.10E+00    5.6     0.00000419     -2872.4015123269 -3.99E-05
   116 OT DIIS     0.10E+00    6.3     0.00000424     -2872.4015586063 -4.63E-05
   117 OT DIIS     0.10E+00    8.2     0.00000407     -2872.4015937726 -3.52E-05
   118 OT DIIS     0.10E+00    6.5     0.00000400     -2872.4016262830 -3.25E-05
   119 OT DIIS     0.10E+00    8.5     0.00000401     -2872.4016303104 -4.03E-06
   120 OT SD       0.10E+00    6.5     0.00000400     -2872.4016323746 -2.06E-06

  Leaving inner SCF loop after reaching   120 steps.


  Electronic density on regular grids:      -1056.0000000021       -0.0000000021
  Core density on regular grids:             1055.9999999995       -0.0000000005
  Total charge density on r-space grids:       -0.0000000026
  Total charge density g-space grids:          -0.0000000026

  Overlap energy of the core charge distribution:               0.00001072146892
  Self energy of the core charge distribution:              -6954.02004235612549
  Core Hamiltonian energy:                                   1868.75620963569372
  Hartree energy:                                            2783.07748661197002
  Exchange-correlation energy:                               -568.72713403584169
  Dispersion energy:                                           -1.48816295173906

  Total energy:                                             -2872.40163237457273

  outer SCF iter =    2 RMS gradient =   0.40E-05 energy =      -2872.4016323746

  ----------------------------------- OT ---------------------------------------
  Minimizer      : DIIS                : direct inversion
                                         in the iterative subspace
                                         using   7 DIIS vectors
                                         safer DIIS on
  Preconditioner : FULL_SINGLE_INVERSE : inversion of 
                                         H + eS - 2*(Sc)(c^T*H*c+const)(Sc)^T
  Precond_solver : INVERSE_UPDATE
  stepsize       :    0.10000000                  energy_gap     :    0.10000000
  eps_taylor     :   0.10000E-15                  max_taylor     :             4
  ----------------------------------- OT ---------------------------------------

  Step     Update method      Time    Convergence         Total energy    Change
  ------------------------------------------------------------------------------


     Lanczos converged:  T threshold:   0.100E-02
     Est. extremal eigenvalues:    0.384E+01   0.185E+00
     Est. condition number :    0.207E+02
     Hotelling iter   1 1.00000000   0.833E+00       0.361   150637.419
     Hotelling iter   2 1.00000000   0.509E+00       0.252   215728.600
     Hotelling iter   3 1.00000000   0.117E+00       0.253   215219.132



     Lanczos converged:  T threshold:   0.100E-02
     Est. extremal eigenvalues:    0.383E+01   0.185E+00
     Est. condition number :    0.207E+02
     Hotelling iter   1 1.00000000   0.833E+00       0.987    55113.348
     Hotelling iter   2 1.00000000   0.509E+00       0.536   101652.507
     Hotelling iter   3 1.00000000   0.116E+00       0.716    76104.803

     1 OT DIIS     0.10E+00   22.1     0.00000449     -2872.4016363702 -4.00E-06
     2 OT DIIS     0.10E+00    4.9     0.00000454     -2872.4016414125 -5.04E-06
     3 OT SD       0.10E+00    5.6     0.00000451     -2872.4016429453 -1.53E-06
     4 OT SD       0.10E+00    8.1     0.00000454     -2872.4016480778 -5.13E-06
     5 OT SD       0.10E+00    4.8     0.00000460     -2872.4016532978 -5.22E-06
     6 OT SD       0.10E+00    5.4     0.00000468     -2872.4016586311 -5.33E-06
     7 OT SD       0.10E+00    8.3     0.00000481     -2872.4016641020 -5.47E-06
     8 OT SD       0.10E+00    4.9     0.00000506     -2872.4016697192 -5.62E-06
     9 OT SD       0.10E+00    5.4     0.00000569     -2872.4016754090 -5.69E-06
    10 OT SD       0.10E+00    9.3     0.00000746     -2872.4016807359 -5.33E-06
    11 OT SD       0.10E+00    5.6     0.00001213     -2872.4016836712 -2.94E-06
    12 OT SD       0.10E+00    5.7     0.00002315     -2872.4016750447  8.63E-06
    13 OT DIIS     0.10E+00    5.7     0.00004766     -2872.4016129775  6.21E-05
    14 OT SD       0.10E+00    5.5     0.00000433     -2872.4016517559 -3.88E-05
    15 OT DIIS     0.10E+00    6.0     0.00000434     -2872.4016564622 -4.71E-06
    16 OT SD       0.10E+00    7.3     0.00000433     -2872.4016584319 -1.97E-06
    17 OT SD       0.10E+00    5.7     0.00000434     -2872.4016631596 -4.73E-06
    18 OT SD       0.10E+00    5.6     0.00000435     -2872.4016679088 -4.75E-06
    19 OT SD       0.10E+00    6.0     0.00000437     -2872.4016726878 -4.78E-06
    20 OT DIIS     0.10E+00    5.5     0.00000440     -2872.4016775062 -4.82E-06
    21 OT DIIS     0.10E+00    5.4     0.00000426     -2872.4016902240 -1.27E-05
    22 OT DIIS     0.10E+00   10.2     0.00000427     -2872.4016954323 -5.21E-06
    23 OT SD       0.10E+00    5.6     0.00000426     -2872.4017007542 -5.32E-06
    24 OT SD       0.10E+00    5.4     0.00000427     -2872.4017053379 -4.58E-06
    25 OT SD       0.10E+00    9.5     0.00000428     -2872.4017099365 -4.60E-06
    26 OT SD       0.10E+00    5.7     0.00000431     -2872.4017145519 -4.62E-06
    27 OT SD       0.10E+00    5.3     0.00000440     -2872.4017191744 -4.62E-06
    28 OT SD       0.10E+00    8.7     0.00000476     -2872.4017237348 -4.56E-06
    29 OT SD       0.10E+00    4.9     0.00000615     -2872.4017278741 -4.14E-06
    30 OT SD       0.10E+00    5.7     0.00001048     -2872.4017298288 -1.95E-06
    31 OT DIIS     0.10E+00    9.3     0.00002137     -2872.4017210351  8.79E-06
    32 OT SD       0.10E+00    5.1     0.00000423     -2872.4017218514 -8.16E-07
    33 OT SD       0.10E+00    6.5     0.00000423     -2872.4017263518 -4.50E-06
    34 OT SD       0.10E+00    7.3     0.00000425     -2872.4017308588 -4.51E-06
    35 OT SD       0.10E+00    5.6     0.00000431     -2872.4017353680 -4.51E-06
    36 OT SD       0.10E+00    5.5     0.00000448     -2872.4017398512 -4.48E-06
    37 OT SD       0.10E+00    5.8     0.00000506     -2872.4017441910 -4.34E-06
    38 OT SD       0.10E+00    5.7     0.00000679     -2872.4017479231 -3.73E-06
    39 OT DIIS     0.10E+00    6.2     0.00001114     -2872.4017492484 -1.33E-06
    40 OT DIIS     0.10E+00    7.8     0.00000420     -2872.4017472212  2.03E-06
    41 OT SD       0.10E+00    6.0     0.00000420     -2872.4017521575 -4.94E-06
    42 OT SD       0.10E+00    7.7     0.00000420     -2872.4017565964 -4.44E-06
    43 OT SD       0.10E+00    6.1     0.00000421     -2872.4017610431 -4.45E-06
    44 OT SD       0.10E+00    5.8     0.00000423     -2872.4017654992 -4.46E-06
    45 OT SD       0.10E+00    9.7     0.00000428     -2872.4017699611 -4.46E-06
    46 OT SD       0.10E+00    4.6     0.00000444     -2872.4017744033 -4.44E-06
    47 OT SD       0.10E+00    4.7     0.00000500     -2872.4017787111 -4.31E-06
    48 OT SD       0.10E+00    4.1     0.00000678     -2872.4017824009 -3.69E-06
    49 OT SD       0.10E+00    5.7     0.00001149     -2872.4017834393 -1.04E-06
    50 OT DIIS     0.10E+00    3.9     0.00002223     -2872.4017731825  1.03E-05
    51 OT SD       0.10E+00    3.9     0.00000417     -2872.4017648563  8.33E-06
    52 OT DIIS     0.10E+00    5.3     0.00000418     -2872.4017692385 -4.38E-06
    53 OT SD       0.10E+00   10.6     0.00000417     -2872.4017724077 -3.17E-06
    54 OT SD       0.10E+00    9.9     0.00000418     -2872.4017767988 -4.39E-06
    55 OT SD       0.10E+00    9.2     0.00000418     -2872.4017811979 -4.40E-06
    56 OT DIIS     0.10E+00    5.4     0.00000419     -2872.4017856081 -4.41E-06
    57 OT DIIS     0.10E+00    6.0     0.00000416     -2872.4017913427 -5.73E-06
    58 OT DIIS     0.10E+00    6.6     0.00000411     -2872.4018411443 -4.98E-05
    59 OT DIIS     0.10E+00    4.9     0.00000412     -2872.4018907332 -4.96E-05
    60 OT SD       0.10E+00    5.8     0.00000411     -2872.4019037811 -1.30E-05
    61 OT DIIS     0.10E+00    5.0     0.00000414     -2872.4019080347 -4.25E-06
    62 OT DIIS     0.10E+00    5.5     0.00000413     -2872.4019375897 -2.96E-05
    63 OT DIIS     0.10E+00    7.1     0.00000409     -2872.4019519721 -1.44E-05
    64 OT DIIS     0.10E+00    4.6     0.00000406     -2872.4019868468 -3.49E-05
    65 OT DIIS     0.10E+00    5.7     0.00000407     -2872.4020911135 -1.04E-04
    66 OT DIIS     0.10E+00    9.1     0.00000403     -2872.4021493671 -5.83E-05
    67 OT DIIS     0.10E+00    5.4     0.00000397     -2872.4021716740 -2.23E-05
    68 OT SD       0.10E+00    5.9     0.00000401     -2872.4021740454 -2.37E-06
    69 OT SD       0.10E+00    6.9     0.00000410     -2872.4021779547 -3.91E-06
    70 OT SD       0.10E+00    5.5     0.00000440     -2872.4021818000 -3.85E-06
    71 OT SD       0.10E+00    5.6     0.00000533     -2872.4021853984 -3.60E-06
    72 OT SD       0.10E+00    6.4     0.00000786     -2872.4021879984 -2.60E-06
    73 OT SD       0.10E+00    5.1     0.00001373     -2872.4021866835  1.31E-06
    74 OT DIIS     0.10E+00    6.6     0.00002601     -2872.4021701027  1.66E-05
    75 OT DIIS     0.10E+00    6.2     0.00000386     -2872.4021568263  1.33E-05
    76 OT DIIS     0.10E+00    5.0     0.00000384     -2872.4021589558 -2.13E-06
    77 OT SD       0.10E+00    6.4     0.00000385     -2872.4021621589 -3.20E-06
    78 OT SD       0.10E+00    6.5     0.00000386     -2872.4021658923 -3.73E-06
    79 OT SD       0.10E+00    5.2     0.00000387     -2872.4021696426 -3.75E-06
    80 OT SD       0.10E+00    6.1     0.00000391     -2872.4021734143 -3.77E-06
    81 OT SD       0.10E+00    7.0     0.00000401     -2872.4021772017 -3.79E-06
    82 OT SD       0.10E+00    5.9     0.00000437     -2872.4021809496 -3.75E-06
    83 OT SD       0.10E+00    8.3     0.00000563     -2872.4021843755 -3.43E-06
    84 OT SD       0.10E+00    5.6     0.00000934     -2872.4021861540 -1.78E-06
    85 OT DIIS     0.10E+00    5.6     0.00001844     -2872.4021801404  6.01E-06
    86 OT SD       0.10E+00    6.9     0.00000380     -2872.4021730227  7.12E-06
    87 OT SD       0.10E+00    5.1     0.00000380     -2872.4021766637 -3.64E-06
    88 OT SD       0.10E+00    6.5     0.00000381     -2872.4021803110 -3.65E-06
    89 OT SD       0.10E+00    5.9     0.00000383     -2872.4021839647 -3.65E-06
    90 OT SD       0.10E+00    5.2     0.00000389     -2872.4021876184 -3.65E-06
    91 OT SD       0.10E+00    6.7     0.00000409     -2872.4021912386 -3.62E-06
    92 OT SD       0.10E+00   10.6     0.00000480     -2872.4021946812 -3.44E-06
    93 OT SD       0.10E+00    5.5     0.00000698     -2872.4021973418 -2.66E-06
    94 OT SD       0.10E+00   11.4     0.00001248     -2872.4021966737  6.68E-07
    95 OT DIIS     0.10E+00    5.2     0.00002467     -2872.4021818267  1.48E-05
    96 OT SD       0.10E+00    5.6     0.00000378     -2872.4021721357  9.69E-06
    97 OT SD       0.10E+00   10.0     0.00000378     -2872.4021757267 -3.59E-06
    98 OT SD       0.10E+00    6.2     0.00000379     -2872.4021793222 -3.60E-06
    99 OT SD       0.10E+00    7.1     0.00000384     -2872.4021829194 -3.60E-06
   100 OT SD       0.10E+00    4.7     0.00000397     -2872.4021864985 -3.58E-06
   101 OT SD       0.10E+00    6.4     0.00000446     -2872.4021899710 -3.47E-06
   102 OT SD       0.10E+00    6.9     0.00000601     -2872.4021929622 -2.99E-06
   103 OT DIIS     0.10E+00    5.6     0.00001013     -2872.4021938998 -9.38E-07
   104 OT SD       0.10E+00    5.3     0.00000375     -2872.4021990886 -5.19E-06
   105 OT SD       0.10E+00    7.5     0.00000376     -2872.4022026329 -3.54E-06
   106 OT DIIS     0.10E+00    6.4     0.00000378     -2872.4022061791 -3.55E-06
   107 OT SD       0.10E+00   12.7     0.00000375     -2872.4022090152 -2.84E-06
   108 OT DIIS     0.10E+00    4.7     0.00000377     -2872.4022125348 -3.52E-06
   109 OT DIIS     0.10E+00    4.1     0.00000370     -2872.4022427963 -3.03E-05
   110 OT DIIS     0.10E+00    9.1     0.00000369     -2872.4022468274 -4.03E-06
   111 OT DIIS     0.10E+00    4.1     0.00000366     -2872.4022827271 -3.59E-05
   112 OT DIIS     0.10E+00    6.1     0.00000364     -2872.4022867873 -4.06E-06
   113 OT DIIS     0.10E+00    9.2     0.00000363     -2872.4023015714 -1.48E-05
   114 OT DIIS     0.10E+00    5.4     0.00000363     -2872.4023094538 -7.88E-06
   115 OT DIIS     0.10E+00    6.5     0.00000363     -2872.4023218020 -1.23E-05
   116 OT DIIS     0.10E+00    8.3     0.00000362     -2872.4023316831 -9.88E-06
   117 OT DIIS     0.10E+00    6.2     0.00000362     -2872.4023319490 -2.66E-07
   118 OT SD       0.10E+00    8.8     0.00000362     -2872.4023331347 -1.19E-06
   119 OT SD       0.10E+00    5.5     0.00000363     -2872.4023364414 -3.31E-06
   120 OT DIIS     0.10E+00    6.0     0.00000366     -2872.4023397617 -3.32E-06

  Leaving inner SCF loop after reaching   120 steps.


  Electronic density on regular grids:      -1056.0000000021       -0.0000000021
  Core density on regular grids:             1055.9999999995       -0.0000000005
  Total charge density on r-space grids:       -0.0000000026
  Total charge density g-space grids:          -0.0000000026

  Overlap energy of the core charge distribution:               0.00001072146892
  Self energy of the core charge distribution:              -6954.02004235612549
  Core Hamiltonian energy:                                   1868.75267666353216
  Hartree energy:                                            2783.07922598046162
  Exchange-correlation energy:                               -568.72604781925702
  Dispersion energy:                                           -1.48816295173906

  Total energy:                                             -2872.40233976165882

  outer SCF iter =    3 RMS gradient =   0.37E-05 energy =      -2872.4023397617

  ----------------------------------- OT ---------------------------------------
  Minimizer      : DIIS                : direct inversion
                                         in the iterative subspace
                                         using   7 DIIS vectors
                                         safer DIIS on
  Preconditioner : FULL_SINGLE_INVERSE : inversion of 
                                         H + eS - 2*(Sc)(c^T*H*c+const)(Sc)^T
  Precond_solver : INVERSE_UPDATE
  stepsize       :    0.10000000                  energy_gap     :    0.10000000
  eps_taylor     :   0.10000E-15                  max_taylor     :             4
  ----------------------------------- OT ---------------------------------------

  Step     Update method      Time    Convergence         Total energy    Change
  ------------------------------------------------------------------------------


     Lanczos converged:  T threshold:   0.100E-02
     Est. extremal eigenvalues:    0.161E+01   0.535E+00
     Est. condition number :    0.301E+01
     Hotelling iter   1 1.00000000   0.277E+00       0.482   112558.662



     Lanczos converged:  T threshold:   0.100E-02
     Est. extremal eigenvalues:    0.159E+01   0.539E+00
     Est. condition number :    0.296E+01
     Hotelling iter   1 1.00000000   0.270E+00       0.372   145667.931

     1 OT DIIS     0.10E+00   18.2     0.00000345     -2872.4023423616 -2.60E-06
     2 OT DIIS     0.10E+00    5.2     0.00000354     -2872.4023452672 -2.91E-06
     3 OT DIIS     0.10E+00    7.2     0.00000341     -2872.4023463403 -1.07E-06
     4 OT SD       0.10E+00    5.9     0.00000341     -2872.4023474254 -1.09E-06
     5 OT SD       0.10E+00    7.8     0.00000341     -2872.4023503604 -2.93E-06
     6 OT SD       0.10E+00    4.6     0.00000341     -2872.4023532981 -2.94E-06
     7 OT SD       0.10E+00    5.4     0.00000342     -2872.4023562399 -2.94E-06
     8 OT SD       0.10E+00    9.1     0.00000342     -2872.4023591874 -2.95E-06
     9 OT SD       0.10E+00    5.0     0.00000343     -2872.4023621420 -2.95E-06
    10 OT SD       0.10E+00    5.3     0.00000344     -2872.4023651049 -2.96E-06
    11 OT SD       0.10E+00    7.5     0.00000348     -2872.4023680744 -2.97E-06
    12 OT SD       0.10E+00    5.4     0.00000359     -2872.4023710364 -2.96E-06
    13 OT SD       0.10E+00    5.1     0.00000399     -2872.4023739239 -2.89E-06
    14 OT SD       0.10E+00    6.7     0.00000533     -2872.4023764460 -2.52E-06
    15 OT SD       0.10E+00    5.1     0.00000897     -2872.4023773631 -9.17E-07
    16 OT SD       0.10E+00    6.6     0.00001734     -2872.4023713989  5.96E-06
    17 OT DIIS     0.10E+00    6.9     0.00003517     -2872.4023360201  3.54E-05
    18 OT SD       0.10E+00    5.6     0.00000340     -2872.4023549754 -1.90E-05
    19 OT SD       0.10E+00    5.4     0.00000340     -2872.4023578852 -2.91E-06
    20 OT SD       0.10E+00    6.6     0.00000341     -2872.4023607963 -2.91E-06
    21 OT SD       0.10E+00    5.4     0.00000342     -2872.4023637073 -2.91E-06
    22 OT SD       0.10E+00    7.6     0.00000348     -2872.4023666108 -2.90E-06
    23 OT SD       0.10E+00    5.2     0.00000369     -2872.4023694755 -2.86E-06
    24 OT DIIS     0.10E+00    6.5     0.00000435     -2872.4023721808 -2.71E-06
    25 OT DIIS     0.10E+00    8.5     0.00000338     -2872.4023812992 -9.12E-06
    26 OT SD       0.10E+00    5.0     0.00000338     -2872.4023836951 -2.40E-06
    27 OT SD       0.10E+00    5.6     0.00000338     -2872.4023865751 -2.88E-06
    28 OT SD       0.10E+00    7.1     0.00000339     -2872.4023894610 -2.89E-06
    29 OT SD       0.10E+00    6.0     0.00000340     -2872.4023923537 -2.89E-06
    30 OT SD       0.10E+00    8.0     0.00000342     -2872.4023952532 -2.90E-06
    31 OT SD       0.10E+00    4.7     0.00000347     -2872.4023981535 -2.90E-06
    32 OT SD       0.10E+00    5.6     0.00000368     -2872.4024010253 -2.87E-06
    33 OT SD       0.10E+00    6.7     0.00000438     -2872.4024037410 -2.72E-06
    34 OT SD       0.10E+00    5.1     0.00000647     -2872.4024057688 -2.03E-06
    35 OT SD       0.10E+00    5.9     0.00001162     -2872.4024048973  8.72E-07
    36 OT DIIS     0.10E+00    8.4     0.00002285     -2872.4023918917  1.30E-05
    37 OT SD       0.10E+00    5.6     0.00000336     -2872.4023754351  1.65E-05
    38 OT SD       0.10E+00    5.4     0.00000336     -2872.4023782871 -2.85E-06
    39 OT SD       0.10E+00    6.7     0.00000337     -2872.4023811395 -2.85E-06
    40 OT SD       0.10E+00    6.0     0.00000337     -2872.4023839921 -2.85E-06
    41 OT SD       0.10E+00    5.6     0.00000339     -2872.4023868429 -2.85E-06
    42 OT SD       0.10E+00    5.1     0.00000346     -2872.4023896820 -2.84E-06
    43 OT DIIS     0.10E+00    5.6     0.00000370     -2872.4023924704 -2.79E-06
    44 OT DIIS     0.10E+00    6.9     0.00000335     -2872.4024104248 -1.80E-05
    45 OT DIIS     0.10E+00    5.9     0.00000335     -2872.4024131397 -2.71E-06
    46 OT SD       0.10E+00    3.9     0.00000335     -2872.4024146216 -1.48E-06
    47 OT DIIS     0.10E+00    4.0     0.00000335     -2872.4024174517 -2.83E-06
    48 OT DIIS     0.10E+00    3.9     0.00000333     -2872.4024316208 -1.42E-05
    49 OT DIIS     0.10E+00    5.6     0.00000333     -2872.4024388622 -7.24E-06
    50 OT DIIS     0.10E+00    9.1     0.00000330     -2872.4024539964 -1.51E-05
    51 OT DIIS     0.10E+00    4.9     0.00000329     -2872.4025020488 -4.81E-05
    52 OT DIIS     0.10E+00    5.3     0.00000329     -2872.4025229888 -2.09E-05
    53 OT DIIS     0.10E+00    7.4     0.00000328     -2872.4025765365 -5.35E-05
    54 OT DIIS     0.10E+00    5.4     0.00000326     -2872.4025817523 -5.22E-06
    55 OT SD       0.10E+00    5.4     0.00000325     -2872.4025840762 -2.32E-06
    56 OT SD       0.10E+00    6.6     0.00000326     -2872.4025867337 -2.66E-06
    57 OT DIIS     0.10E+00    5.1     0.00000331     -2872.4025893963 -2.66E-06
    58 OT DIIS     0.10E+00    5.3     0.00000324     -2872.4026076158 -1.82E-05
    59 OT DIIS     0.10E+00    6.6     0.00000322     -2872.4026301849 -2.26E-05
    60 OT DIIS     0.10E+00    5.2     0.00000321     -2872.4026564687 -2.63E-05
    61 OT SD       0.10E+00    9.4     0.00000320     -2872.4026712654 -1.48E-05
    62 OT DIIS     0.10E+00    5.6     0.00000321     -2872.4026738403 -2.57E-06
    63 OT DIIS     0.10E+00    5.9     0.00000320     -2872.4026812109 -7.37E-06
    64 OT DIIS     0.10E+00    5.8     0.00000320     -2872.4026815015 -2.91E-07
    65 OT DIIS     0.10E+00    5.2     0.00000320     -2872.4026825745 -1.07E-06
    66 OT SD       0.10E+00    6.0     0.00000320     -2872.4026846629 -2.09E-06
    67 OT SD       0.10E+00    8.3     0.00000320     -2872.4026872407 -2.58E-06
    68 OT SD       0.10E+00    5.7     0.00000321     -2872.4026898249 -2.58E-06
    69 OT SD       0.10E+00    5.3     0.00000324     -2872.4026924171 -2.59E-06
    70 OT SD       0.10E+00    6.8     0.00000332     -2872.4026950110 -2.59E-06
    71 OT SD       0.10E+00    6.3     0.00000360     -2872.4026975671 -2.56E-06
    72 OT SD       0.10E+00   10.9     0.00000456     -2872.4026999050 -2.34E-06
    73 OT SD       0.10E+00    5.0     0.00000732     -2872.4027012458 -1.34E-06
    74 OT SD       0.10E+00    5.3     0.00001389     -2872.4026982500  3.00E-06
    75 OT DIIS     0.10E+00    8.6     0.00002808     -2872.4026765750  2.17E-05
    76 OT SD       0.10E+00    5.5     0.00000313     -2872.4026854247 -8.85E-06
    77 OT SD       0.10E+00    6.2     0.00000315     -2872.4026878990 -2.47E-06
    78 OT SD       0.10E+00    7.7     0.00000317     -2872.4026903867 -2.49E-06
    79 OT SD       0.10E+00    5.0     0.00000322     -2872.4026928885 -2.50E-06
    80 OT SD       0.10E+00    5.6     0.00000338     -2872.4026953908 -2.50E-06
    81 OT SD       0.10E+00    4.9     0.00000386     -2872.4026978277 -2.44E-06
    82 OT SD       0.10E+00    5.4     0.00000523     -2872.4026999282 -2.10E-06
    83 OT SD       0.10E+00    8.2     0.00000862     -2872.4027006262 -6.98E-07
    84 OT DIIS     0.10E+00    5.1     0.00001597     -2872.4026957438  4.88E-06
    85 OT SD       0.10E+00    6.4     0.00000309     -2872.4026916321  4.11E-06
    86 OT SD       0.10E+00    8.0     0.00000309     -2872.4026940412 -2.41E-06
    87 OT SD       0.10E+00    5.7     0.00000310     -2872.4026964541 -2.41E-06
    88 OT SD       0.10E+00    7.0     0.00000312     -2872.4026988704 -2.42E-06
    89 OT SD       0.10E+00    4.4     0.00000317     -2872.4027012841 -2.41E-06
    90 OT SD       0.10E+00    5.2     0.00000337     -2872.4027036687 -2.38E-06
    91 OT SD       0.10E+00   10.0     0.00000402     -2872.4027059130 -2.24E-06
    92 OT SD       0.10E+00    5.5     0.00000596     -2872.4027075624 -1.65E-06
    93 OT SD       0.10E+00    5.7     0.00001070     -2872.4027067455  8.17E-07
    94 OT DIIS     0.10E+00    7.3     0.00002099     -2872.4026957023  1.10E-05
    95 OT SD       0.10E+00    5.0     0.00000307     -2872.4026902322  5.47E-06
    96 OT SD       0.10E+00    5.8     0.00000308     -2872.4026926108 -2.38E-06
    97 OT SD       0.10E+00   11.6     0.00000309     -2872.4026949960 -2.39E-06
    98 OT SD       0.10E+00    6.5     0.00000311     -2872.4026973881 -2.39E-06
    99 OT SD       0.10E+00    6.9     0.00000318     -2872.4026997823 -2.39E-06
   100 OT SD       0.10E+00    4.5     0.00000339     -2872.4027021536 -2.37E-06
   101 OT SD       0.10E+00    6.5     0.00000404     -2872.4027044011 -2.25E-06
   102 OT SD       0.10E+00    6.9     0.00000581     -2872.4027061358 -1.73E-06
   103 OT SD       0.10E+00    8.4     0.00000997     -2872.4027058567  2.79E-07
   104 OT DIIS     0.10E+00    4.0     0.00001877     -2872.4026976955  8.16E-06
   105 OT SD       0.10E+00    4.0     0.00000305     -2872.4026977554 -5.99E-08
   106 OT SD       0.10E+00    3.9     0.00000305     -2872.4027001048 -2.35E-06
   107 OT SD       0.10E+00    5.7     0.00000306     -2872.4027024568 -2.35E-06
   108 OT SD       0.10E+00    9.6     0.00000307     -2872.4027048114 -2.35E-06
   109 OT SD       0.10E+00    5.5     0.00000310     -2872.4027071660 -2.35E-06
   110 OT SD       0.10E+00    5.8     0.00000319     -2872.4027095094 -2.34E-06
   111 OT SD       0.10E+00    5.9     0.00000348     -2872.4027117986 -2.29E-06
   112 OT SD       0.10E+00    5.1     0.00000439     -2872.4027138724 -2.07E-06
   113 OT SD       0.10E+00    5.8     0.00000677     -2872.4027151262 -1.25E-06
   114 OT SD       0.10E+00   10.3     0.00001206     -2872.4027132657  1.86E-06
   115 OT DIIS     0.10E+00    6.1     0.00002293     -2872.4026994824  1.38E-05
   116 OT SD       0.10E+00    7.4     0.00000304     -2872.4026937823  5.70E-06
   117 OT SD       0.10E+00    4.6     0.00000305     -2872.4026961140 -2.33E-06
   118 OT SD       0.10E+00    5.8     0.00000307     -2872.4026984474 -2.33E-06
   119 OT SD       0.10E+00    9.1     0.00000313     -2872.4027007758 -2.33E-06
   120 OT SD       0.10E+00    5.7     0.00000336     -2872.4027030685 -2.29E-06

  Leaving inner SCF loop after reaching   120 steps.


  Electronic density on regular grids:      -1056.0000000021       -0.0000000021
  Core density on regular grids:             1055.9999999995       -0.0000000005
  Total charge density on r-space grids:       -0.0000000026
  Total charge density g-space grids:          -0.0000000026

  Overlap energy of the core charge distribution:               0.00001072146892
  Self energy of the core charge distribution:              -6954.02004235612549
  Core Hamiltonian energy:                                   1868.75098885649913
  Hartree energy:                                            2783.08002071901501
  Exchange-correlation energy:                               -568.72551805759508
  Dispersion energy:                                           -1.48816295173906

  Total energy:                                             -2872.40270306847606

  outer SCF iter =    4 RMS gradient =   0.34E-05 energy =      -2872.4027030685

  ----------------------------------- OT ---------------------------------------
  Minimizer      : DIIS                : direct inversion
                                         in the iterative subspace
                                         using   7 DIIS vectors
                                         safer DIIS on
  Preconditioner : FULL_SINGLE_INVERSE : inversion of 
                                         H + eS - 2*(Sc)(c^T*H*c+const)(Sc)^T
  Precond_solver : INVERSE_UPDATE
  stepsize       :    0.10000000                  energy_gap     :    0.10000000
  eps_taylor     :   0.10000E-15                  max_taylor     :             4
  ----------------------------------- OT ---------------------------------------

  Step     Update method      Time    Convergence         Total energy    Change
  ------------------------------------------------------------------------------


     Lanczos converged:  T threshold:   0.100E-02
     Est. extremal eigenvalues:    0.122E+01   0.546E+00
     Est. condition number :    0.223E+01
     Hotelling iter   1 1.00000000   0.170E+00       1.482    36574.916



     Lanczos converged:  T threshold:   0.100E-02
     Est. extremal eigenvalues:    0.121E+01   0.553E+00
     Est. condition number :    0.219E+01
     Hotelling iter   1 1.00000000   0.163E+00       1.451    37368.871

     1 OT DIIS     0.10E+00   23.4     0.00000425     -2872.4027051957 -2.13E-06
     2 OT DIIS     0.10E+00    4.8     0.00000677     -2872.4027066691 -1.47E-06
     3 OT DIIS     0.10E+00    5.2     0.00000323     -2872.4027089221 -2.25E-06
     4 OT SD       0.10E+00    6.6     0.00000322     -2872.4027092559 -3.34E-07
     5 OT SD       0.10E+00    4.9     0.00000325     -2872.4027118665 -2.61E-06
     6 OT SD       0.10E+00    5.6     0.00000333     -2872.4027144946 -2.63E-06
     7 OT SD       0.10E+00    9.9     0.00000358     -2872.4027171114 -2.62E-06
     8 OT SD       0.10E+00    6.4     0.00000447     -2872.4027195599 -2.45E-06
     9 OT SD       0.10E+00    7.0     0.00000722     -2872.4027210761 -1.52E-06
    10 OT SD       0.10E+00    4.4     0.00001421     -2872.4027180112  3.06E-06
    11 OT DIIS     0.10E+00    5.7     0.00003023     -2872.4026928475  2.52E-05
    12 OT SD       0.10E+00    8.2     0.00000316     -2872.4026957784 -2.93E-06
    13 OT SD       0.10E+00    5.7     0.00000316     -2872.4026982931 -2.51E-06
    14 OT SD       0.10E+00    6.7     0.00000317     -2872.4027008071 -2.51E-06
    15 OT SD       0.10E+00    7.7     0.00000319     -2872.4027033181 -2.51E-06
    16 OT SD       0.10E+00    6.2     0.00000326     -2872.4027058162 -2.50E-06
    17 OT SD       0.10E+00   10.1     0.00000354     -2872.4027082586 -2.44E-06
    18 OT SD       0.10E+00    4.9     0.00000450     -2872.4027104623 -2.20E-06
    19 OT SD       0.10E+00    5.4     0.00000734     -2872.4027116228 -1.16E-06
    20 OT DIIS     0.10E+00    9.4     0.00001426     -2872.4027081185  3.50E-06
    21 OT SD       0.10E+00    6.1     0.00000315     -2872.4027090422 -9.24E-07
    22 OT SD       0.10E+00    6.6     0.00000317     -2872.4027115234 -2.48E-06
    23 OT SD       0.10E+00    4.5     0.00000323     -2872.4027139987 -2.48E-06
    24 OT SD       0.10E+00    5.7     0.00000345     -2872.4027164389 -2.44E-06
    25 OT SD       0.10E+00    8.9     0.00000415     -2872.4027187260 -2.29E-06
    26 OT SD       0.10E+00    5.7     0.00000612     -2872.4027203982 -1.67E-06
    27 OT SD       0.10E+00    5.6     0.00001077     -2872.4027196320  7.66E-07
    28 OT DIIS     0.10E+00    6.2     0.00002067     -2872.4027091169  1.05E-05
    29 OT DIIS     0.10E+00    5.0     0.00000312     -2872.4027132687 -4.15E-06
    30 OT SD       0.10E+00    6.3     0.00000312     -2872.4027142207 -9.52E-07
    31 OT SD       0.10E+00    7.3     0.00000313     -2872.4027166812 -2.46E-06
    32 OT SD       0.10E+00    5.6     0.00000313     -2872.4027191424 -2.46E-06
    33 OT SD       0.10E+00    5.3     0.00000315     -2872.4027216025 -2.46E-06
    34 OT SD       0.10E+00    6.4     0.00000321     -2872.4027240534 -2.45E-06
    35 OT SD       0.10E+00    6.0     0.00000344     -2872.4027264581 -2.40E-06
    36 OT SD       0.10E+00    9.9     0.00000433     -2872.4027286524 -2.19E-06
    37 OT SD       0.10E+00    5.4     0.00000702     -2872.4027298964 -1.24E-06
    38 OT SD       0.10E+00    5.9     0.00001373     -2872.4027267983  3.10E-06
    39 OT DIIS     0.10E+00    6.0     0.00002886     -2872.4027035517  2.32E-05
    40 OT SD       0.10E+00    4.4     0.00000312     -2872.4027081046 -4.55E-06
    41 OT DIIS     0.10E+00    4.3     0.00000312     -2872.4027105516 -2.45E-06
    42 OT SD       0.10E+00    4.1     0.00000312     -2872.4027156441 -5.09E-06
    43 OT SD       0.10E+00    4.8     0.00000312     -2872.4027180944 -2.45E-06
    44 OT SD       0.10E+00    6.1     0.00000312     -2872.4027205479 -2.45E-06
    45 OT DIIS     0.10E+00    6.2     0.00000313     -2872.4027230051 -2.46E-06
    46 OT DIIS     0.10E+00    5.1     0.00000310     -2872.4027306284 -7.62E-06
    47 OT DIIS     0.10E+00    6.3     0.00000307     -2872.4027942830 -6.37E-05
    48 OT DIIS     0.10E+00    7.7     0.00000305     -2872.4028144015 -2.01E-05
    49 OT DIIS     0.10E+00    5.1     0.00000310     -2872.4028698614 -5.55E-05
    50 OT DIIS     0.10E+00    5.5     0.00000305     -2872.4028919979 -2.21E-05
    51 OT DIIS     0.10E+00    8.8     0.00000296     -2872.4029173585 -2.54E-05
    52 OT DIIS     0.10E+00    6.1     0.00000296     -2872.4029387733 -2.14E-05
    53 OT DIIS     0.10E+00    8.4     0.00000294     -2872.4029546649 -1.59E-05
    54 OT DIIS     0.10E+00    4.7     0.00000293     -2872.4029760497 -2.14E-05
    55 OT DIIS     0.10E+00    5.8     0.00000294     -2872.4029792508 -3.20E-06
    56 OT DIIS     0.10E+00    8.6     0.00000293     -2872.4029813146 -2.06E-06
    57 OT DIIS     0.10E+00    5.7     0.00000294     -2872.4029827953 -1.48E-06
    58 OT DIIS     0.10E+00    5.6     0.00000293     -2872.4029885826 -5.79E-06
    59 OT DIIS     0.10E+00    6.2     0.00000293     -2872.4029939890 -5.41E-06
    60 OT DIIS     0.10E+00    5.0     0.00000292     -2872.4030003236 -6.33E-06
    61 OT DIIS     0.10E+00   10.0     0.00000292     -2872.4030070378 -6.71E-06
    62 OT DIIS     0.10E+00    5.6     0.00000292     -2872.4030133740 -6.34E-06
    63 OT SD       0.10E+00    5.9     0.00000292     -2872.4030203138 -6.94E-06
    64 OT SD       0.10E+00    6.9     0.00000292     -2872.4030224585 -2.14E-06
    65 OT DIIS     0.10E+00    4.9     0.00000293     -2872.4030246078 -2.15E-06
    66 OT DIIS     0.10E+00    5.6     0.00000291     -2872.4030277464 -3.14E-06
    67 OT DIIS     0.10E+00   10.1     0.00000290     -2872.4030391116 -1.14E-05
    68 OT DIIS     0.10E+00    6.1     0.00000289     -2872.4030434262 -4.31E-06
    69 OT SD       0.10E+00    7.0     0.00000289     -2872.4030454746 -2.05E-06
    70 OT DIIS     0.10E+00    4.4     0.00000290     -2872.4030475786 -2.10E-06
    71 OT DIIS     0.10E+00    5.8     0.00000289     -2872.4030489386 -1.36E-06
    72 OT DIIS     0.10E+00    8.6     0.00000289     -2872.4030509244 -1.99E-06
    73 OT SD       0.10E+00    5.9     0.00000289     -2872.4030558405 -4.92E-06
    74 OT SD       0.10E+00    6.0     0.00000291     -2872.4030579411 -2.10E-06
    75 OT DIIS     0.10E+00   10.9     0.00000296     -2872.4030600457 -2.10E-06
    76 OT DIIS     0.10E+00    6.1     0.00000289     -2872.4030624123 -2.37E-06
    77 OT DIIS     0.10E+00    4.9     0.00000287     -2872.4030639468 -1.53E-06
    78 OT DIIS     0.10E+00    6.8     0.00000285     -2872.4030818603 -1.79E-05
    79 OT DIIS     0.10E+00    5.8     0.00000284     -2872.4030892132 -7.35E-06
    80 OT DIIS     0.10E+00   10.1     0.00000284     -2872.4030937310 -4.52E-06
    81 OT DIIS     0.10E+00    5.5     0.00000284     -2872.4030954627 -1.73E-06
    82 OT SD       0.10E+00    5.4     0.00000284     -2872.4030955008 -3.81E-08
    83 OT SD       0.10E+00    7.4     0.00000285     -2872.4030975396 -2.04E-06
    84 OT DIIS     0.10E+00    6.3     0.00000287     -2872.4030995908 -2.05E-06
    85 OT DIIS     0.10E+00   10.9     0.00000284     -2872.4031008992 -1.31E-06
    86 OT DIIS     0.10E+00    5.3     0.00000279     -2872.4031139295 -1.30E-05
    87 OT DIIS     0.10E+00    5.9     0.00000277     -2872.4031160480 -2.12E-06
    88 OT DIIS     0.10E+00    6.7     0.00000274     -2872.4031238868 -7.84E-06
    89 OT DIIS     0.10E+00    5.2     0.00000274     -2872.4031282145 -4.33E-06
    90 OT DIIS     0.10E+00    6.4     0.00000272     -2872.4031322160 -4.00E-06
    91 OT DIIS     0.10E+00    8.9     0.00000272     -2872.4031366500 -4.43E-06
    92 OT DIIS     0.10E+00    6.0     0.00000272     -2872.4031369479 -2.98E-07
    93 OT DIIS     0.10E+00    7.7     0.00000272     -2872.4031373107 -3.63E-07
    94 OT DIIS     0.10E+00    4.8     0.00000272     -2872.4031391549 -1.84E-06
    95 OT DIIS     0.10E+00    6.1     0.00000271     -2872.4031424419 -3.29E-06
    96 OT DIIS     0.10E+00    7.8     0.00000270     -2872.4031519850 -9.54E-06
    97 OT DIIS     0.10E+00    8.0     0.00000270     -2872.4031599693 -7.98E-06
    98 OT SD       0.10E+00    4.2     0.00000270     -2872.4031618620 -1.89E-06
    99 OT SD       0.10E+00    4.1     0.00000272     -2872.4031637038 -1.84E-06
   100 OT SD       0.10E+00    4.3     0.00000276     -2872.4031655642 -1.86E-06
   101 OT DIIS     0.10E+00    6.8     0.00000286     -2872.4031674436 -1.88E-06
   102 OT DIIS     0.10E+00   10.8     0.00000265     -2872.4031730970 -5.65E-06
   103 OT DIIS     0.10E+00    6.9     0.00000261     -2872.4031871167 -1.40E-05
   104 OT DIIS     0.10E+00   12.5     0.00000261     -2872.4031888774 -1.76E-06
   105 OT SD       0.10E+00    5.8     0.00000259     -2872.4031901383 -1.26E-06
   106 OT SD       0.10E+00    6.8     0.00000261     -2872.4031918352 -1.70E-06
   107 OT SD       0.10E+00   10.1     0.00000265     -2872.4031935439 -1.71E-06
   108 OT SD       0.10E+00    6.9     0.00000278     -2872.4031952566 -1.71E-06
   109 OT SD       0.10E+00    9.9     0.00000323     -2872.4031969176 -1.66E-06
   110 OT SD       0.10E+00    5.9     0.00000471     -2872.4031982524 -1.33E-06
   111 OT SD       0.10E+00    6.6     0.00000869     -2872.4031979711  2.81E-07
   112 OT DIIS     0.10E+00   10.7     0.00001795     -2872.4031900441  7.93E-06
   113 OT DIIS     0.10E+00    6.6     0.00000253     -2872.4031888995  1.14E-06
   114 OT SD       0.10E+00   10.6     0.00000254     -2872.4031903018 -1.40E-06
   115 OT SD       0.10E+00    5.8     0.00000255     -2872.4031919237 -1.62E-06
   116 OT SD       0.10E+00    6.0     0.00000256     -2872.4031935518 -1.63E-06
   117 OT SD       0.10E+00    8.7     0.00000259     -2872.4031951863 -1.63E-06
   118 OT SD       0.10E+00    5.4     0.00000266     -2872.4031968226 -1.64E-06
   119 OT SD       0.10E+00    5.4     0.00000289     -2872.4031984371 -1.61E-06
   120 OT SD       0.10E+00    9.1     0.00000363     -2872.4031999242 -1.49E-06

  Leaving inner SCF loop after reaching   120 steps.


  Electronic density on regular grids:      -1056.0000000021       -0.0000000021
  Core density on regular grids:             1055.9999999995       -0.0000000005
  Total charge density on r-space grids:       -0.0000000026
  Total charge density g-space grids:          -0.0000000026

  Overlap energy of the core charge distribution:               0.00001072146892
  Self energy of the core charge distribution:              -6954.02004235612549
  Core Hamiltonian energy:                                   1868.74807190858019
  Hartree energy:                                            2783.08179940119544
  Exchange-correlation energy:                               -568.72487664758671
  Dispersion energy:                                           -1.48816295173906

  Total energy:                                             -2872.40319992420700

  outer SCF iter =    5 RMS gradient =   0.36E-05 energy =      -2872.4031999242

  ----------------------------------- OT ---------------------------------------
  Minimizer      : DIIS                : direct inversion
                                         in the iterative subspace
                                         using   7 DIIS vectors
                                         safer DIIS on
  Preconditioner : FULL_SINGLE_INVERSE : inversion of 
                                         H + eS - 2*(Sc)(c^T*H*c+const)(Sc)^T
  Precond_solver : INVERSE_UPDATE
  stepsize       :    0.10000000                  energy_gap     :    0.10000000
  eps_taylor     :   0.10000E-15                  max_taylor     :             4
  ----------------------------------- OT ---------------------------------------

  Step     Update method      Time    Convergence         Total energy    Change
  ------------------------------------------------------------------------------


     Lanczos converged:  T threshold:   0.100E-02
     Est. extremal eigenvalues:    0.163E+01   0.495E+00
     Est. condition number :    0.328E+01
     Hotelling iter   1 1.00000000   0.310E+00       0.378   143890.252



     Lanczos converged:  T threshold:   0.100E-02
     Est. extremal eigenvalues:    0.162E+01   0.499E+00
     Est. condition number :    0.324E+01
     Hotelling iter   1 1.00000000   0.305E+00       0.375   145006.095

     1 OT DIIS     0.10E+00   23.0     0.00000563     -2872.4032008133 -8.89E-07
     2 OT DIIS     0.10E+00    4.6     0.00001026     -2872.4031993163  1.50E-06
     3 OT DIIS     0.10E+00    5.7     0.00000260     -2872.4032040119 -4.70E-06
     4 OT SD       0.10E+00    9.5     0.00000254     -2872.4032045527 -5.41E-07
     5 OT SD       0.10E+00    5.6     0.00000258     -2872.4032061909 -1.64E-06
     6 OT SD       0.10E+00    6.0     0.00000263     -2872.4032078733 -1.68E-06
     7 OT SD       0.10E+00    5.8     0.00000270     -2872.4032096082 -1.73E-06
     8 OT SD       0.10E+00    5.1     0.00000284     -2872.4032113994 -1.79E-06
     9 OT SD       0.10E+00    6.1     0.00000320     -2872.4032132242 -1.82E-06
    10 OT SD       0.10E+00    5.9     0.00000423     -2872.4032149385 -1.71E-06
    11 OT SD       0.10E+00    5.0     0.00000693     -2872.4032158691 -9.31E-07
    12 OT SD       0.10E+00    5.6     0.00001316     -2872.4032130730  2.80E-06
    13 OT DIIS     0.10E+00    8.9     0.00002651     -2872.4031938727  1.92E-05
    14 OT DIIS     0.10E+00    6.1     0.00000238     -2872.4031813025  1.26E-05
    15 OT SD       0.10E+00    9.2     0.00000239     -2872.4031820434 -7.41E-07
    16 OT SD       0.10E+00    4.6     0.00000242     -2872.4031834515 -1.41E-06
    17 OT DIIS     0.10E+00    5.7     0.00000252     -2872.4031848422 -1.39E-06
    18 OT DIIS     0.10E+00    9.6     0.00000237     -2872.4031902546 -5.41E-06
    19 OT DIIS     0.10E+00    5.6     0.00000236     -2872.4031952703 -5.02E-06
    20 OT SD       0.10E+00    5.4     0.00000236     -2872.4031968037 -1.53E-06
    21 OT SD       0.10E+00    9.1     0.00000236     -2872.4031982115 -1.41E-06
    22 OT SD       0.10E+00    5.1     0.00000237     -2872.4031996215 -1.41E-06
    23 OT SD       0.10E+00    5.4     0.00000237     -2872.4032010341 -1.41E-06
    24 OT SD       0.10E+00    6.2     0.00000238     -2872.4032024491 -1.42E-06
    25 OT SD       0.10E+00    5.2     0.00000241     -2872.4032038649 -1.42E-06
    26 OT SD       0.10E+00    6.7     0.00000250     -2872.4032052726 -1.41E-06
    27 OT SD       0.10E+00    6.6     0.00000280     -2872.4032066368 -1.36E-06
    28 OT SD       0.10E+00    5.3     0.00000374     -2872.4032078154 -1.18E-06
    29 OT SD       0.10E+00    5.9     0.00000617     -2872.4032082469 -4.32E-07
    30 OT SD       0.10E+00    8.8     0.00001151     -2872.4032057129  2.53E-06
    31 OT DIIS     0.10E+00    4.6     0.00002249     -2872.4031914372  1.43E-05
    32 OT SD       0.10E+00    5.8     0.00000235     -2872.4031869218  4.52E-06
    33 OT SD       0.10E+00    8.4     0.00000235     -2872.4031883157 -1.39E-06
    34 OT SD       0.10E+00    4.5     0.00000235     -2872.4031897091 -1.39E-06
    35 OT SD       0.10E+00    4.9     0.00000236     -2872.4031911017 -1.39E-06
    36 OT SD       0.10E+00    4.0     0.00000239     -2872.4031924905 -1.39E-06
    37 OT SD       0.10E+00    4.0     0.00000250     -2872.4031938632 -1.37E-06
    38 OT SD       0.10E+00    4.0     0.00000291     -2872.4031951682 -1.31E-06
    39 OT DIIS     0.10E+00    3.8     0.00000418     -2872.4031961918 -1.02E-06
    40 OT DIIS     0.10E+00    5.9     0.00000234     -2872.4031960040  1.88E-07
    41 OT SD       0.10E+00    9.0     0.00000234     -2872.4031972032 -1.20E-06
    42 OT SD       0.10E+00    5.2     0.00000235     -2872.4031985890 -1.39E-06
    43 OT SD       0.10E+00    5.4     0.00000235     -2872.4031999761 -1.39E-06
    44 OT SD       0.10E+00    5.3     0.00000235     -2872.4032013648 -1.39E-06
    45 OT SD       0.10E+00    6.8     0.00000236     -2872.4032027547 -1.39E-06
    46 OT SD       0.10E+00    6.1     0.00000240     -2872.4032041426 -1.39E-06
    47 OT SD       0.10E+00    5.7     0.00000253     -2872.4032055144 -1.37E-06
    48 OT SD       0.10E+00    6.1     0.00000300     -2872.4032068087 -1.29E-06
    49 OT SD       0.10E+00    5.4     0.00000447     -2872.4032077643 -9.56E-07
    50 OT SD       0.10E+00    7.6     0.00000814     -2872.4032072739  4.90E-07
    51 OT DIIS     0.10E+00    4.5     0.00001619     -2872.4032006283  6.65E-06
    52 OT SD       0.10E+00    5.7     0.00000234     -2872.4031918911  8.74E-06
    53 OT SD       0.10E+00    7.2     0.00000234     -2872.4031932694 -1.38E-06
    54 OT SD       0.10E+00    5.0     0.00000234     -2872.4031946480 -1.38E-06
    55 OT SD       0.10E+00    5.3     0.00000234     -2872.4031960268 -1.38E-06
    56 OT SD       0.10E+00    6.9     0.00000235     -2872.4031974052 -1.38E-06
    57 OT SD       0.10E+00    5.3     0.00000240     -2872.4031987789 -1.37E-06
    58 OT SD       0.10E+00    6.0     0.00000256     -2872.4032001294 -1.35E-06
    59 OT SD       0.10E+00    5.9     0.00000314     -2872.4032013776 -1.25E-06
    60 OT SD       0.10E+00    5.1     0.00000489     -2872.4032021875 -8.10E-07
    61 OT SD       0.10E+00    5.9     0.00000913     -2872.4032011305  1.06E-06
    62 OT DIIS     0.10E+00    6.8     0.00001834     -2872.4031921139  9.02E-06
    63 OT SD       0.10E+00    6.0     0.00000234     -2872.4031966756 -4.56E-06
    64 OT SD       0.10E+00    8.7     0.00000234     -2872.4031980504 -1.37E-06
    65 OT SD       0.10E+00    4.5     0.00000234     -2872.4031994261 -1.38E-06
    66 OT SD       0.10E+00    5.5     0.00000234     -2872.4032008028 -1.38E-06
    67 OT SD       0.10E+00    9.6     0.00000235     -2872.4032021800 -1.38E-06
    68 OT SD       0.10E+00    4.8     0.00000238     -2872.4032035550 -1.37E-06
    69 OT SD       0.10E+00    5.4     0.00000249     -2872.4032049161 -1.36E-06
    70 OT SD       0.10E+00    9.0     0.00000288     -2872.4032062159 -1.30E-06
    71 OT SD       0.10E+00    4.7     0.00000407     -2872.4032072614 -1.05E-06
    72 OT SD       0.10E+00    5.5     0.00000706     -2872.4032072650 -3.57E-09
    73 OT SD       0.10E+00    7.5     0.00001364     -2872.4032029902  4.27E-06
    74 OT DIIS     0.10E+00    5.1     0.00002734     -2872.4031810616  2.19E-05
    75 OT DIIS     0.10E+00    5.4     0.00000233     -2872.4031943146 -1.33E-05
    76 OT SD       0.10E+00    6.8     0.00000233     -2872.4031956393 -1.32E-06
    77 OT SD       0.10E+00    5.2     0.00000233     -2872.4031970097 -1.37E-06
    78 OT SD       0.10E+00    5.3     0.00000233     -2872.4031983807 -1.37E-06
    79 OT SD       0.10E+00    6.5     0.00000234     -2872.4031997519 -1.37E-06
    80 OT SD       0.10E+00    5.7     0.00000236     -2872.4032011215 -1.37E-06
    81 OT SD       0.10E+00    8.7     0.00000244     -2872.4032024809 -1.36E-06
    82 OT SD       0.10E+00    5.0     0.00000274     -2872.4032037942 -1.31E-06
    83 OT SD       0.10E+00    6.3     0.00000372     -2872.4032049113 -1.12E-06
    84 OT SD       0.10E+00    7.9     0.00000633     -2872.4032052050 -2.94E-07
[...]
    68 OT SD       0.10E+00    5.7     0.00000253     -2873.5075013213 -7.82E-06
    69 OT DIIS     0.10E+00    6.3     0.00000254     -2873.5075029333 -1.61E-06
    70 OT DIIS     0.10E+00    4.8     0.00000253     -2873.5075044449 -1.51E-06
    71 OT DIIS     0.10E+00    6.0     0.00000253     -2873.5075101479 -5.70E-06
    72 OT SD       0.10E+00    8.3     0.00000253     -2873.5075178247 -7.68E-06
    73 OT DIIS     0.10E+00    6.1     0.00000253     -2873.5075194355 -1.61E-06
    74 OT DIIS     0.10E+00    5.7     0.00000253     -2873.5075252220 -5.79E-06
    75 OT DIIS     0.10E+00    5.5     0.00000253     -2873.5075266156 -1.39E-06
    76 OT SD       0.10E+00    6.7     0.00000253     -2873.5075271951 -5.80E-07
    77 OT SD       0.10E+00    5.5     0.00000253     -2873.5075288058 -1.61E-06
    78 OT SD       0.10E+00    6.2     0.00000253     -2873.5075304167 -1.61E-06
    79 OT SD       0.10E+00    5.3     0.00000253     -2873.5075320276 -1.61E-06
    80 OT SD       0.10E+00    8.3     0.00000253     -2873.5075336385 -1.61E-06
    81 OT SD       0.10E+00    4.6     0.00000254     -2873.5075352486 -1.61E-06
    82 OT SD       0.10E+00    6.9     0.00000256     -2873.5075368552 -1.61E-06
    83 OT SD       0.10E+00    6.1     0.00000264     -2873.5075384492 -1.59E-06
    84 OT SD       0.10E+00    5.8     0.00000290     -2873.5075399999 -1.55E-06
    85 OT SD       0.10E+00    5.1     0.00000363     -2873.5075414019 -1.40E-06
    86 OT DIIS     0.10E+00    7.3     0.00000543     -2873.5075422937 -8.92E-07
    87 OT SD       0.10E+00    5.1     0.00000501     -2873.5075422281  6.56E-08
    88 OT SD       0.10E+00    6.7     0.00000285     -2873.5075461761 -3.95E-06
    89 OT SD       0.10E+00    5.7     0.00000261     -2873.5075480046 -1.83E-06
    90 OT SD       0.10E+00    7.1     0.00000263     -2873.5075496258 -1.62E-06
    91 OT DIIS     0.10E+00    5.6     0.00000287     -2873.5075511534 -1.53E-06
    92 OT DIIS     0.10E+00    6.2     0.00000248     -2873.5075549786 -3.83E-06
    93 OT DIIS     0.10E+00    5.8     0.00000248     -2873.5075579711 -2.99E-06
    94 OT DIIS     0.10E+00    6.6     0.00000246     -2873.5075617956 -3.82E-06
    95 OT DIIS     0.10E+00    5.0     0.00000246     -2873.5075649263 -3.13E-06
    96 OT DIIS     0.10E+00    6.8     0.00000246     -2873.5075677329 -2.81E-06
    97 OT SD       0.10E+00    8.1     0.00000246     -2873.5075696507 -1.92E-06
    98 OT SD       0.10E+00    6.4     0.00000246     -2873.5075711799 -1.53E-06
    99 OT SD       0.10E+00    4.9     0.00000246     -2873.5075727102 -1.53E-06
   100 OT SD       0.10E+00    6.1     0.00000247     -2873.5075742417 -1.53E-06
   101 OT SD       0.10E+00    6.0     0.00000247     -2873.5075757742 -1.53E-06
   102 OT SD       0.10E+00    8.7     0.00000249     -2873.5075773063 -1.53E-06
   103 OT SD       0.10E+00    5.8     0.00000254     -2873.5075788323 -1.53E-06
   104 OT SD       0.10E+00    5.9     0.00000272     -2873.5075803308 -1.50E-06
   105 OT SD       0.10E+00    5.3     0.00000330     -2873.5075817219 -1.39E-06
   106 OT SD       0.10E+00    6.8     0.00000488     -2873.5075827087 -9.87E-07
   107 OT SD       0.10E+00    5.5     0.00000848     -2873.5075821881  5.21E-07
   108 OT SD       0.10E+00    6.2     0.00001582     -2873.5075760582  6.13E-06
   109 OT DIIS     0.10E+00    5.2     0.00003022     -2873.5075490588  2.70E-05
   110 OT SD       0.10E+00    6.9     0.00000248     -2873.5075453636  3.70E-06
   111 OT SD       0.10E+00    5.0     0.00000245     -2873.5075468924 -1.53E-06
   112 OT DIIS     0.10E+00    6.4     0.00000245     -2873.5075484019 -1.51E-06
   113 OT DIIS     0.10E+00    8.7     0.00000245     -2873.5075490952 -6.93E-07
   114 OT DIIS     0.10E+00    6.3     0.00000245     -2873.5075499204 -8.25E-07
   115 OT DIIS     0.10E+00    5.2     0.00000244     -2873.5075512469 -1.33E-06
   116 OT DIIS     0.10E+00    5.9     0.00000244     -2873.5075550663 -3.82E-06
   117 OT DIIS     0.10E+00    6.1     0.00000244     -2873.5075586769 -3.61E-06
   118 OT DIIS     0.10E+00    6.1     0.00000244     -2873.5075623889 -3.71E-06
   119 OT SD       0.10E+00    5.9     0.00000244     -2873.5075632484 -8.60E-07
   120 OT SD       0.10E+00    6.1     0.00000244     -2873.5075647539 -1.51E-06

  Leaving inner SCF loop after reaching   120 steps.


  Electronic density on regular grids:      -1055.9999999973        0.0000000027
  Core density on regular grids:             1055.9999999995       -0.0000000005
  Total charge density on r-space grids:        0.0000000023
  Total charge density g-space grids:           0.0000000023

  Overlap energy of the core charge distribution:               0.00000445876875
  Self energy of the core charge distribution:              -6954.02004235612549
  Core Hamiltonian energy:                                   1860.64847334941078
  Hartree energy:                                            2788.40176890302473
  Exchange-correlation energy:                               -567.10182133703347
  Dispersion energy:                                           -1.43594777192405

  Total energy:                                             -2873.50756475387880

  outer SCF iter =   12 RMS gradient =   0.24E-05 energy =      -2873.5075647539

  ----------------------------------- OT ---------------------------------------
  Minimizer      : DIIS                : direct inversion
                                         in the iterative subspace
                                         using   7 DIIS vectors
                                         safer DIIS on
  Preconditioner : FULL_SINGLE_INVERSE : inversion of 
                                         H + eS - 2*(Sc)(c^T*H*c+const)(Sc)^T
  Precond_solver : INVERSE_UPDATE
  stepsize       :    0.10000000                  energy_gap     :    0.10000000
  eps_taylor     :   0.10000E-15                  max_taylor     :             4
  ----------------------------------- OT ---------------------------------------

  Step     Update method      Time    Convergence         Total energy    Change
  ------------------------------------------------------------------------------


     Lanczos converged:  T threshold:   0.100E-02
     Est. extremal eigenvalues:    0.111E+01   0.864E+00
     Est. condition number :    0.128E+01
     Hotelling iter   1 1.00000000   0.281E-01       0.350   154794.218



     Lanczos converged:  T threshold:   0.100E-02
     Est. extremal eigenvalues:    0.104E+01   0.958E+00
     Est. condition number :    0.108E+01
     Hotelling iter   1 1.00000000   0.761E-02       0.328   155708.694

     1 OT DIIS     0.10E+00   15.4     0.00000245     -2873.5075662595 -1.51E-06
     2 OT SD       0.10E+00    6.0     0.00000245     -2873.5075677692 -1.51E-06
     3 OT SD       0.10E+00   12.7     0.00000245     -2873.5075692792 -1.51E-06
     4 OT SD       0.10E+00    5.7     0.00000245     -2873.5075707894 -1.51E-06
     5 OT SD       0.10E+00    6.0     0.00000245     -2873.5075722994 -1.51E-06
     6 OT SD       0.10E+00    5.4     0.00000246     -2873.5075738081 -1.51E-06
     7 OT SD       0.10E+00    7.0     0.00000250     -2873.5075753114 -1.50E-06
     8 OT SD       0.10E+00    5.5     0.00000263     -2873.5075767947 -1.48E-06
     9 OT SD       0.10E+00    6.3     0.00000304     -2873.5075782057 -1.41E-06
    10 OT SD       0.10E+00    5.3     0.00000418     -2873.5075793598 -1.15E-06
    11 OT SD       0.10E+00    8.8     0.00000682     -2873.5075796019 -2.42E-07
    12 OT SD       0.10E+00    5.0     0.00001223     -2873.5075766082  2.99E-06
    13 OT DIIS     0.10E+00    6.8     0.00002270     -2873.5075621282  1.45E-05
    14 OT SD       0.10E+00    9.4     0.00000255     -2873.5075529437  9.18E-06
    15 OT SD       0.10E+00    4.6     0.00000245     -2873.5075545061 -1.56E-06
    16 OT SD       0.10E+00    6.0     0.00000245     -2873.5075560096 -1.50E-06
    17 OT SD       0.10E+00    6.2     0.00000248     -2873.5075575039 -1.49E-06
    18 OT SD       0.10E+00    5.1     0.00000256     -2873.5075589829 -1.48E-06
    19 OT DIIS     0.10E+00    6.1     0.00000286     -2873.5075604122 -1.43E-06
    20 OT DIIS     0.10E+00    7.4     0.00000244     -2873.5075633919 -2.98E-06
    21 OT DIIS     0.10E+00    6.1     0.00000244     -2873.5075653841 -1.99E-06
    22 OT SD       0.10E+00    6.2     0.00000244     -2873.5075664685 -1.08E-06
    23 OT SD       0.10E+00    5.8     0.00000244     -2873.5075679662 -1.50E-06
    24 OT SD       0.10E+00    6.0     0.00000244     -2873.5075694639 -1.50E-06
    25 OT SD       0.10E+00   12.3     0.00000244     -2873.5075709619 -1.50E-06
    26 OT SD       0.10E+00    5.5     0.00000244     -2873.5075724601 -1.50E-06
    27 OT SD       0.10E+00    5.8     0.00000244     -2873.5075739585 -1.50E-06
    28 OT SD       0.10E+00    5.2     0.00000244     -2873.5075754573 -1.50E-06
    29 OT SD       0.10E+00    6.8     0.00000244     -2873.5075769563 -1.50E-06
    30 OT SD       0.10E+00    5.6     0.00000244     -2873.5075784555 -1.50E-06
    31 OT SD       0.10E+00    6.3     0.00000245     -2873.5075799541 -1.50E-06
    32 OT SD       0.10E+00    5.3     0.00000247     -2873.5075814499 -1.50E-06
    33 OT SD       0.10E+00   10.0     0.00000255     -2873.5075829346 -1.48E-06
    34 OT SD       0.10E+00    5.1     0.00000278     -2873.5075843803 -1.45E-06
    35 OT SD       0.10E+00    6.7     0.00000349     -2873.5075856890 -1.31E-06
    36 OT DIIS     0.10E+00    8.7     0.00000524     -2873.5075865191 -8.30E-07
    37 OT SD       0.10E+00    7.1     0.00000285     -2873.5075882951 -1.78E-06
    38 OT SD       0.10E+00    5.5     0.00000246     -2873.5075900567 -1.76E-06
    39 OT SD       0.10E+00    6.3     0.00000243     -2873.5075915625 -1.51E-06
    40 OT DIIS     0.10E+00    5.7     0.00000244     -2873.5075930476 -1.49E-06
    41 OT DIIS     0.10E+00    6.4     0.00000243     -2873.5075935512 -5.04E-07
    42 OT DIIS     0.10E+00    7.1     0.00000243     -2873.5075958005 -2.25E-06
    43 OT SD       0.10E+00    5.5     0.00000243     -2873.5075959496 -1.49E-07
    44 OT SD       0.10E+00    6.3     0.00000243     -2873.5075974334 -1.48E-06
    45 OT SD       0.10E+00    5.2     0.00000243     -2873.5075989179 -1.48E-06
    46 OT SD       0.10E+00   10.5     0.00000243     -2873.5076004033 -1.49E-06
    47 OT SD       0.10E+00    5.1     0.00000243     -2873.5076018896 -1.49E-06
    48 OT SD       0.10E+00    6.7     0.00000243     -2873.5076033767 -1.49E-06
    49 OT SD       0.10E+00    8.5     0.00000243     -2873.5076048647 -1.49E-06
    50 OT SD       0.10E+00    7.0     0.00000244     -2873.5076063528 -1.49E-06
    51 OT SD       0.10E+00    5.5     0.00000246     -2873.5076078391 -1.49E-06
    52 OT SD       0.10E+00    6.3     0.00000253     -2873.5076093169 -1.48E-06
    53 OT SD       0.10E+00    5.1     0.00000272     -2873.5076107651 -1.45E-06
    54 OT SD       0.10E+00    9.9     0.00000326     -2873.5076121161 -1.35E-06
    55 OT SD       0.10E+00    5.2     0.00000457     -2873.5076131502 -1.03E-06
    56 OT SD       0.10E+00    6.6     0.00000737     -2873.5076131485  1.67E-09
    57 OT SD       0.10E+00    7.6     0.00001281     -2873.5076097347  3.41E-06
    58 OT SD       0.10E+00    7.1     0.00002298     -2873.5075949820  1.48E-05
    59 OT DIIS     0.10E+00    5.5     0.00004180     -2873.5075422222  5.28E-05
    60 OT SD       0.10E+00    6.3     0.00000251     -2873.5075635641 -2.13E-05
    61 OT SD       0.10E+00    6.5     0.00000242     -2873.5075650919 -1.53E-06
    62 OT DIIS     0.10E+00   10.3     0.00000242     -2873.5075665671 -1.48E-06
    63 OT SD       0.10E+00    6.5     0.00000242     -2873.5075721369 -5.57E-06
    64 OT DIIS     0.10E+00    5.0     0.00000242     -2873.5075736046 -1.47E-06
    65 OT DIIS     0.10E+00    6.0     0.00000241     -2873.5075765316 -2.93E-06
    66 OT DIIS     0.10E+00    6.1     0.00000241     -2873.5075787385 -2.21E-06
    67 OT SD       0.10E+00    6.2     0.00000241     -2873.5075804600 -1.72E-06
    68 OT SD       0.10E+00    5.3     0.00000241     -2873.5075819285 -1.47E-06
    69 OT SD       0.10E+00    6.7     0.00000241     -2873.5075833970 -1.47E-06
    70 OT SD       0.10E+00    4.5     0.00000241     -2873.5075848656 -1.47E-06
    71 OT SD       0.10E+00    7.0     0.00000241     -2873.5075863343 -1.47E-06
    72 OT SD       0.10E+00    8.1     0.00000242     -2873.5075878030 -1.47E-06
    73 OT SD       0.10E+00    5.0     0.00000242     -2873.5075892708 -1.47E-06
    74 OT SD       0.10E+00    6.7     0.00000245     -2873.5075907350 -1.46E-06
    75 OT SD       0.10E+00    9.2     0.00000254     -2873.5075921854 -1.45E-06
    76 OT SD       0.10E+00    6.8     0.00000284     -2873.5075935858 -1.40E-06
    77 OT SD       0.10E+00    5.6     0.00000373     -2873.5075948041 -1.22E-06
    78 OT SD       0.10E+00    6.3     0.00000591     -2873.5075953609 -5.57E-07
    79 OT SD       0.10E+00    5.7     0.00001056     -2873.5075935125  1.85E-06
    80 OT SD       0.10E+00    8.3     0.00001975     -2873.5075829083  1.06E-05
    81 OT DIIS     0.10E+00    7.2     0.00003748     -2873.5075403930  4.25E-05
    82 OT SD       0.10E+00    6.2     0.00000244     -2873.5075580802 -1.77E-05
    83 OT DIIS     0.10E+00    5.0     0.00000242     -2873.5075595638 -1.48E-06
    84 OT DIIS     0.10E+00    6.0     0.00000243     -2873.5075600296 -4.66E-07
    85 OT SD       0.10E+00    7.4     0.00000241     -2873.5075734487 -1.34E-05
    86 OT SD       0.10E+00    6.1     0.00000241     -2873.5075749139 -1.47E-06
    87 OT DIIS     0.10E+00    5.6     0.00000242     -2873.5075763781 -1.46E-06
    88 OT DIIS     0.10E+00    5.5     0.00000241     -2873.5075778816 -1.50E-06
    89 OT DIIS     0.10E+00    7.0     0.00000241     -2873.5075824240 -4.54E-06
    90 OT DIIS     0.10E+00    6.0     0.00000241     -2873.5075844771 -2.05E-06
    91 OT DIIS     0.10E+00    6.0     0.00000241     -2873.5075932943 -8.82E-06
    92 OT DIIS     0.10E+00    6.0     0.00000241     -2873.5075986246 -5.33E-06
    93 OT DIIS     0.10E+00    8.9     0.00000241     -2873.5076017885 -3.16E-06
    94 OT SD       0.10E+00    6.1     0.00000241     -2873.5076046448 -2.86E-06
    95 OT DIIS     0.10E+00    5.8     0.00000241     -2873.5076061069 -1.46E-06
    96 OT SD       0.10E+00    5.9     0.00000241     -2873.5076069093 -8.02E-07
    97 OT DIIS     0.10E+00    6.6     0.00000241     -2873.5076083711 -1.46E-06
    98 OT SD       0.10E+00    6.1     0.00000241     -2873.5076124380 -4.07E-06
    99 OT SD       0.10E+00    5.2     0.00000241     -2873.5076138993 -1.46E-06
   100 OT SD       0.10E+00    6.1     0.00000242     -2873.5076153605 -1.46E-06
   101 OT SD       0.10E+00    5.9     0.00000243     -2873.5076168196 -1.46E-06
   102 OT SD       0.10E+00    6.6     0.00000250     -2873.5076182695 -1.45E-06
   103 OT SD       0.10E+00    6.1     0.00000272     -2873.5076196840 -1.41E-06
   104 OT SD       0.10E+00    5.8     0.00000341     -2873.5076209674 -1.28E-06
   105 OT SD       0.10E+00    6.0     0.00000519     -2873.5076217706 -8.03E-07
   106 OT SD       0.10E+00   10.8     0.00000910     -2873.5076208161  9.55E-07
   107 OT SD       0.10E+00    5.8     0.00001696     -2873.5076134253  7.39E-06
   108 OT DIIS     0.10E+00    5.9     0.00003222     -2873.5075824414  3.10E-05
   109 OT SD       0.10E+00    5.4     0.00000257     -2873.5075597782  2.27E-05
   110 OT DIIS     0.10E+00    7.2     0.00000241     -2873.5075613290 -1.55E-06
   111 OT DIIS     0.10E+00    6.1     0.00000252     -2873.5075625051 -1.18E-06
   112 OT SD       0.10E+00    5.9     0.00000240     -2873.5075816750 -1.92E-05
   113 OT SD       0.10E+00    5.9     0.00000241     -2873.5075831222 -1.45E-06
   114 OT DIIS     0.10E+00    9.4     0.00000242     -2873.5075845673 -1.45E-06
   115 OT DIIS     0.10E+00    5.8     0.00000240     -2873.5075855041 -9.37E-07
   116 OT SD       0.10E+00    5.9     0.00000240     -2873.5075908377 -5.33E-06
   117 OT DIIS     0.10E+00    5.7     0.00000240     -2873.5075922833 -1.45E-06
   118 OT DIIS     0.10E+00    6.7     0.00000239     -2873.5076013135 -9.03E-06
   119 OT DIIS     0.10E+00    6.2     0.00000239     -2873.5076050649 -3.75E-06
   120 OT DIIS     0.10E+00    5.8     0.00000239     -2873.5076084480 -3.38E-06

  Leaving inner SCF loop after reaching   120 steps.


  Electronic density on regular grids:      -1055.9999999973        0.0000000027
  Core density on regular grids:             1055.9999999995       -0.0000000005
  Total charge density on r-space grids:        0.0000000023
  Total charge density g-space grids:           0.0000000023

  Overlap energy of the core charge distribution:               0.00000445876875
  Self energy of the core charge distribution:              -6954.02004235612549
  Core Hamiltonian energy:                                   1860.64837923792402
  Hartree energy:                                            2788.40182104316091
  Exchange-correlation energy:                               -567.10182305983028
  Dispersion energy:                                           -1.43594777192405

  Total energy:                                             -2873.50760844802608

  outer SCF iter =   13 RMS gradient =   0.24E-05 energy =      -2873.5076084480

  ----------------------------------- OT ---------------------------------------
  Minimizer      : DIIS                : direct inversion
                                         in the iterative subspace
                                         using   7 DIIS vectors
                                         safer DIIS on
  Preconditioner : FULL_SINGLE_INVERSE : inversion of 
                                         H + eS - 2*(Sc)(c^T*H*c+const)(Sc)^T
  Precond_solver : INVERSE_UPDATE
  stepsize       :    0.10000000                  energy_gap     :    0.10000000
  eps_taylor     :   0.10000E-15                  max_taylor     :             4
  ----------------------------------- OT ---------------------------------------

  Step     Update method      Time    Convergence         Total energy    Change
  ------------------------------------------------------------------------------


     Lanczos converged:  T threshold:   0.100E-02
     Est. extremal eigenvalues:    0.110E+01   0.881E+00
     Est. condition number :    0.125E+01
     Hotelling iter   1 1.00000000   0.239E-01       0.372   145564.925



     Lanczos converged:  T threshold:   0.100E-02
     Est. extremal eigenvalues:    0.103E+01   0.965E+00
     Est. condition number :    0.107E+01
     Hotelling iter   1 1.00000000   0.639E-02       0.338   155134.471

     1 OT DIIS     0.10E+00   15.5     0.00000239     -2873.5076099863 -1.54E-06
     2 OT SD       0.10E+00    4.5     0.00000239     -2873.5076114318 -1.45E-06
     3 OT SD       0.10E+00    5.2     0.00000240     -2873.5076128777 -1.45E-06
     4 OT SD       0.10E+00    6.1     0.00000240     -2873.5076143242 -1.45E-06
     5 OT SD       0.10E+00    5.2     0.00000240     -2873.5076157708 -1.45E-06
     6 OT SD       0.10E+00    7.1     0.00000241     -2873.5076172165 -1.45E-06
     7 OT SD       0.10E+00    5.5     0.00000245     -2873.5076186570 -1.44E-06
     8 OT SD       0.10E+00    6.4     0.00000259     -2873.5076200778 -1.42E-06
     9 OT SD       0.10E+00    5.3     0.00000300     -2873.5076214265 -1.35E-06
    10 OT SD       0.10E+00    9.6     0.00000416     -2873.5076225170 -1.09E-06
    11 OT SD       0.10E+00    5.2     0.00000684     -2873.5076226830 -1.66E-07
    12 OT SD       0.10E+00    6.6     0.00001235     -2873.5076195287  3.15E-06
    13 OT SD       0.10E+00    8.3     0.00002310     -2873.5076044120  1.51E-05
    14 OT DIIS     0.10E+00    6.4     0.00004370     -2873.5075460710  5.83E-05
    15 OT DIIS     0.10E+00    5.0     0.00000246     -2873.5075741924 -2.81E-05
    16 OT DIIS     0.10E+00    6.2     0.00000246     -2873.5075746702 -4.78E-07
