 DBCSR| CPU Multiplication driver                                           XSMM (U)
 DBCSR| Multrec recursion limit                                              512 (U)
 DBCSR| Multiplication stack size                                           1000 (D)
 DBCSR| Maximum elements for images                                    UNLIMITED (U)
 DBCSR| Multiplicative factor virtual images                                   1 (U)
 DBCSR| Use multiplication densification                                       T (D)
 DBCSR| Multiplication size stacks                                             3 (U)
 DBCSR| Use memory pool for CPU allocation                                     F (U)
 DBCSR| Number of 3D layers                                               SINGLE (U)
 DBCSR| Use MPI memory allocation                                              F (U)
 DBCSR| Use RMA algorithm                                                      F (U)
 DBCSR| Use Communication thread                                               T (U)
 DBCSR| Communication thread load                                             30 (D)
 DBCSR| MPI: My process id                                                     0
 DBCSR| MPI: Number of processes                                               1
 DBCSR| OMP: Current number of threads                                        16
 DBCSR| OMP: Max number of threads                                            16
 DBCSR| Split modifier for TAS multiplication algorithm                  1.0E+00 (U)


  **** **** ******  **  PROGRAM STARTED AT               2026-01-21 11:44:15.039
 ***** ** ***  *** **   PROGRAM STARTED ON                          c988c60751bc
 **    ****   ******    PROGRAM STARTED BY                             <unknown>
 ***** **    ** ** **   PROGRAM PROCESS ID                                   678
  **** **  *******  **  PROGRAM STARTED IN                             /mnt/cp2k

 CP2K| version string:                 CP2K version 2026.1 (Development Version)
 CP2K| source code revision number:                                   4e96ea1a00
 CP2K| cp2kflags: omp libint fftw3 libxc elpa parallel scalapack mpi_f08 cosma a
 CP2K|            ce deepmd xsmm dbcsr_acc plumed2 spglib libdftd4 mctc-lib tbli
 CP2K|            ite sirius libvori libbqb libtorch mimic offload_cuda libvdwxc
 CP2K|            c hdf5 trexio libsmeagol greenx
 CP2K| is freely available from                            https://www.cp2k.org/
 CP2K| Program compiled at                                   2026-01-16 05:48:39
 CP2K| Program compiled on                                                      
 CP2K| Program compiled for                                               x86_64
 CP2K| Data directory path                     /opt/cp2k/install/share/cp2k/data
 CP2K| Input file name                                               geo_opt.inp

 GLOBAL| Force Environment number                                              1
 GLOBAL| Basis set file name                                    BASIS_MOLOPT_UZH
 GLOBAL| Potential file name                                       POTENTIAL_UZH
 GLOBAL| MM Potential file name                                     MM_POTENTIAL
 GLOBAL| Coordinate file name              conventional_cell_slab_020_L1_2x2.xyz
 GLOBAL| Method name                                                        CP2K
 GLOBAL| Project name                                         gypsum_slab_geoopt
 GLOBAL| Run type                                                        GEO_OPT
 GLOBAL| FFT library                                                       FFTW3
 GLOBAL| Diagonalization library                                            ELPA
 GLOBAL| Cholesky decomposition library                                ScaLAPACK
 GLOBAL| DGEMM library                                                      BLAS
 GLOBAL| Minimum number of eigenvectors for ELPA usage                        16
 GLOBAL| Orthonormality check for eigenvectors                          DISABLED
 GLOBAL| Matrix multiplication library                                     COSMA
 GLOBAL| All-to-all communication in single precision                          F
 GLOBAL| FFTs using library dependent lengths                                  F
 GLOBAL| Grid backend                                                       AUTO
 GLOBAL| Global print level                                                  LOW
 GLOBAL| MPI I/O enabled                                                       T
 GLOBAL| Total number of message passing processes                             1
 GLOBAL| Number of distributed systems (nodes)                                 1
 GLOBAL| Number of threads for this process                                   16
 GLOBAL| This output is from process                                           0
 GLOBAL| OpenMP stack size per thread (OMP_STACKSIZE)                        16M
 GLOBAL| CPU model name                           Intel(R) Core(TM) Ultra 7 265K
 GLOBAL| CPUID                                                              1002

 MEMORY| system memory details [Kb]
 MEMORY|                        rank 0           min           max       average
 MEMORY| MemTotal             32486564      32486564      32486564      32486564
 MEMORY| MemFree              29111732      29111732      29111732      29111732
 MEMORY| Buffers                 14156         14156         14156         14156
 MEMORY| Cached                 929164        929164        929164        929164
 MEMORY| Slab                   719840        719840        719840        719840
 MEMORY| SReclaimable           560016        560016        560016        560016
 MEMORY| MemLikelyFree        30615068      30615068      30615068      30615068


 GENERATE|  Preliminary Number of Bonds generated:                             0
 GENERATE|  Achieved consistency in connectivity generation.

 *******************************************************************************
 *******************************************************************************
 **                                                                           **
 **     #####                         ##              ##                      **
 **    ##   ##            ##          ##              ##                      **
 **   ##     ##                       ##            ######                    **
 **   ##     ##  ##   ##  ##   #####  ##  ##   ####   ##    #####    #####    **
 **   ##     ##  ##   ##  ##  ##      ## ##   ##      ##   ##   ##  ##   ##   **
 **   ##  ## ##  ##   ##  ##  ##      ####     ###    ##   ######   ######    **
 **    ##  ###   ##   ##  ##  ##      ## ##      ##   ##   ##       ##        **
 **     #######   #####   ##   #####  ##  ##  ####    ##    #####   ##        **
 **           ##                                                    ##        **
 **                                                                           **
 **                                                ... make the atoms dance   **
 **                                                                           **
 **            Copyright (C) by CP2K developers group (2000-2026)             **
 **                      J. Chem. Phys. 152, 194103 (2020)                    **
 **                                                                           **
 *******************************************************************************


 TOTAL NUMBERS AND MAXIMUM NUMBERS

  Total number of            - Atomic kinds:                                   4
                             - Atoms:                                        180
                             - Shell sets:                                   180
                             - Shells:                                       948
                             - Primitive Cartesian functions:                900
                             - Cartesian basis functions:                   2568
                             - Spherical basis functions:                   2388

  Maximum angular momentum of- Orbital basis functions:                        2
                             - Local part of the GTH pseudopotential:          2
                             - Non-local part of the GTH pseudopotential:      3


 SCF PARAMETERS         Density guess:                                    ATOMIC
                        --------------------------------------------------------
                        max_scf:                                             120
                        max_scf_history:                                       0
                        max_diis:                                              4
                        --------------------------------------------------------
                        eps_scf:                                        1.00E-06
                        eps_scf_history:                                0.00E+00
                        eps_diis:                                       0.00E+00
                        eps_eigval:                                     1.00E-05
                        --------------------------------------------------------
                        level_shift [a.u.]:                             0.000000
                        --------------------------------------------------------
                        Outer loop SCF in use 
                        No variables optimised in outer loop
                        eps_scf                                         1.00E-06
                        max_scf                                               20
                        No outer loop optimization
                        step_size                                       5.00E-01

 BFGS| Use rational function optimization for step estimation:                NO
 BFGS| Use model Hessian for initial guess:                                  YES
 BFGS| Restart Hessian:                                                       NO
 BFGS| Trust radius:                                                       0.472

 *******************************************************************************
 ***                     STARTING GEOMETRY OPTIMIZATION                      ***
 ***                                   BFGS                                  ***
 *******************************************************************************

 Extrapolation method: initial_guess

 Spin 1

 Number of electrons:                                                        528
 Number of occupied orbitals:                                                528
 Number of molecular orbitals:                                               528

 Spin 2

 Number of electrons:                                                        528
 Number of occupied orbitals:                                                528
 Number of molecular orbitals:                                               528

 Number of orbital functions:                                               2388
 Number of independent orbital functions:                                   2388


 SCF WAVEFUNCTION OPTIMIZATION

  ----------------------------------- OT ---------------------------------------
  Minimizer      : DIIS                : direct inversion
                                         in the iterative subspace
                                         using   7 DIIS vectors
                                         safer DIIS on
  Preconditioner : FULL_SINGLE_INVERSE : inversion of 
                                         H + eS - 2*(Sc)(c^T*H*c+const)(Sc)^T
  Precond_solver : INVERSE_UPDATE
  stepsize       :    0.10000000                  energy_gap     :    0.10000000
  eps_taylor     :   0.10000E-15                  max_taylor     :             4
  ----------------------------------- OT ---------------------------------------

  Step     Update method      Time    Convergence         Total energy    Change
  ------------------------------------------------------------------------------
     1 OT DIIS     0.10E+00    6.6     0.01320301     -2775.5135335691 -2.78E+03
     2 OT DIIS     0.10E+00    4.0     0.00836085     -2806.6744045042 -3.12E+01
     3 OT DIIS     0.10E+00    4.1     0.00655444     -2822.0206428344 -1.53E+01
     4 OT DIIS     0.10E+00    4.1     0.00475257     -2840.0990112143 -1.81E+01
     5 OT DIIS     0.10E+00    4.0     0.00386302     -2848.9571037142 -8.86E+00
     6 OT DIIS     0.10E+00    4.1     0.00291209     -2856.2871377628 -7.33E+00
     7 OT DIIS     0.10E+00    4.1     0.00218887     -2861.8819515622 -5.59E+00
     8 OT DIIS     0.10E+00    4.1     0.00160766     -2865.8424601922 -3.96E+00
     9 OT DIIS     0.10E+00    4.1     0.00116712     -2868.3930618371 -2.55E+00
    10 OT DIIS     0.10E+00    4.1     0.00110989     -2869.1214376447 -7.28E-01
    11 OT DIIS     0.10E+00    4.1     0.00083305     -2870.0368516629 -9.15E-01
    12 OT DIIS     0.10E+00    4.1     0.00069400     -2870.6226047713 -5.86E-01
    13 OT DIIS     0.10E+00    4.1     0.00054947     -2871.1517712922 -5.29E-01
    14 OT DIIS     0.10E+00    4.1     0.00044423     -2871.4284570908 -2.77E-01
    15 OT DIIS     0.10E+00    4.1     0.00034881     -2871.7376860221 -3.09E-01
    16 OT DIIS     0.10E+00    4.1     0.00029605     -2871.8668327091 -1.29E-01
    17 OT DIIS     0.10E+00    4.1     0.00024602     -2872.0066290897 -1.40E-01
    18 OT DIIS     0.10E+00    4.0     0.00021074     -2872.0700327033 -6.34E-02
    19 OT DIIS     0.10E+00    4.1     0.00019393     -2872.1114857059 -4.15E-02
    20 OT DIIS     0.10E+00    4.1     0.00015620     -2872.1680316445 -5.65E-02
    21 OT DIIS     0.10E+00    4.1     0.00013411     -2872.2062449122 -3.82E-02
    22 OT DIIS     0.10E+00    4.1     0.00011471     -2872.2362598622 -3.00E-02
    23 OT DIIS     0.10E+00    4.1     0.00010136     -2872.2580494454 -2.18E-02
    24 OT DIIS     0.10E+00    4.1     0.00008610     -2872.2737618667 -1.57E-02
    25 OT DIIS     0.10E+00    4.1     0.00008205     -2872.2840436406 -1.03E-02
    26 OT DIIS     0.10E+00    4.1     0.00006801     -2872.2973448182 -1.33E-02
    27 OT DIIS     0.10E+00    4.1     0.00006231     -2872.3045782667 -7.23E-03
    28 OT DIIS     0.10E+00    4.1     0.00005451     -2872.3159620956 -1.14E-02
    29 OT DIIS     0.10E+00    4.1     0.00005036     -2872.3201738313 -4.21E-03
    30 OT DIIS     0.10E+00    4.1     0.00004616     -2872.3274028690 -7.23E-03
    31 OT DIIS     0.10E+00    4.1     0.00004248     -2872.3316967470 -4.29E-03
    32 OT DIIS     0.10E+00    4.1     0.00003914     -2872.3371401011 -5.44E-03
    33 OT DIIS     0.10E+00    4.1     0.00003630     -2872.3409746666 -3.83E-03
    34 OT DIIS     0.10E+00    4.1     0.00003329     -2872.3458914174 -4.92E-03
    35 OT DIIS     0.10E+00    4.1     0.00003091     -2872.3488860382 -2.99E-03
    36 OT DIIS     0.10E+00    4.1     0.00002877     -2872.3525663172 -3.68E-03
    37 OT DIIS     0.10E+00    4.1     0.00002693     -2872.3548794776 -2.31E-03
    38 OT DIIS     0.10E+00    4.1     0.00002540     -2872.3575860637 -2.71E-03
    39 OT DIIS     0.10E+00    4.1     0.00002398     -2872.3595032116 -1.92E-03
    40 OT DIIS     0.10E+00    4.1     0.00002266     -2872.3618088410 -2.31E-03
    41 OT DIIS     0.10E+00    4.1     0.00002144     -2872.3636719618 -1.86E-03
    42 OT DIIS     0.10E+00    4.1     0.00002052     -2872.3655770476 -1.91E-03
    43 OT DIIS     0.10E+00    4.1     0.00001965     -2872.3668977926 -1.32E-03
    44 OT DIIS     0.10E+00    4.1     0.00001905     -2872.3684663584 -1.57E-03
    45 OT DIIS     0.10E+00    4.1     0.00001838     -2872.3693801330 -9.14E-04
    46 OT DIIS     0.10E+00    4.1     0.00001774     -2872.3708404894 -1.46E-03
    47 OT DIIS     0.10E+00    4.1     0.00001705     -2872.3719280969 -1.09E-03
    48 OT DIIS     0.10E+00    4.1     0.00001623     -2872.3732620484 -1.33E-03
    49 OT DIIS     0.10E+00    4.1     0.00001571     -2872.3744946471 -1.23E-03
    50 OT DIIS     0.10E+00    4.1     0.00001459     -2872.3754720343 -9.77E-04
    51 OT DIIS     0.10E+00    4.1     0.00001540     -2872.3766171283 -1.15E-03
    52 OT DIIS     0.10E+00    4.1     0.00001346     -2872.3769995171 -3.82E-04
    53 OT DIIS     0.10E+00    4.1     0.00001287     -2872.3770493253 -4.98E-05
    54 OT DIIS     0.10E+00    4.1     0.00001250     -2872.3773002920 -2.51E-04
    55 OT DIIS     0.10E+00    4.1     0.00001204     -2872.3780247529 -7.24E-04
    56 OT DIIS     0.10E+00    4.1     0.00001183     -2872.3784167961 -3.92E-04
    57 OT DIIS     0.10E+00    4.1     0.00001156     -2872.3792534263 -8.37E-04
    58 OT DIIS     0.10E+00    4.1     0.00001139     -2872.3795171123 -2.64E-04
    59 OT DIIS     0.10E+00    4.1     0.00001089     -2872.3807651025 -1.25E-03
    60 OT DIIS     0.10E+00    4.1     0.00001051     -2872.3812569362 -4.92E-04
    61 OT DIIS     0.10E+00    4.1     0.00001027     -2872.3816598818 -4.03E-04
    62 OT DIIS     0.10E+00    4.1     0.00000994     -2872.3825341654 -8.74E-04
    63 OT DIIS     0.10E+00    4.1     0.00000981     -2872.3826324654 -9.83E-05
    64 OT DIIS     0.10E+00    4.1     0.00000941     -2872.3833803145 -7.48E-04
    65 OT DIIS     0.10E+00    4.1     0.00000972     -2872.3836255114 -2.45E-04
    66 OT DIIS     0.10E+00    4.1     0.00000904     -2872.3840589663 -4.33E-04
    67 OT DIIS     0.10E+00    4.1     0.00000893     -2872.3843464023 -2.87E-04
    68 OT DIIS     0.10E+00    4.1     0.00000867     -2872.3848894060 -5.43E-04
    69 OT DIIS     0.10E+00    4.1     0.00000846     -2872.3855465787 -6.57E-04
    70 OT DIIS     0.10E+00    4.1     0.00000837     -2872.3855783388 -3.18E-05
    71 OT DIIS     0.10E+00    4.1     0.00000813     -2872.3861792334 -6.01E-04
    72 OT DIIS     0.10E+00    4.1     0.00000834     -2872.3861918068 -1.26E-05
    73 OT DIIS     0.10E+00    4.1     0.00000787     -2872.3865248640 -3.33E-04
    74 OT DIIS     0.10E+00    4.1     0.00000774     -2872.3870459881 -5.21E-04
    75 OT DIIS     0.10E+00    4.1     0.00000746     -2872.3874344134 -3.88E-04
    76 OT DIIS     0.10E+00    4.1     0.00000770     -2872.3876549026 -2.20E-04
    77 OT DIIS     0.10E+00    4.1     0.00000729     -2872.3878874866 -2.33E-04
    78 OT DIIS     0.10E+00    4.1     0.00000833     -2872.3878792425  8.24E-06
    79 OT DIIS     0.10E+00    4.1     0.00000806     -2872.3879198846 -4.06E-05
    80 OT DIIS     0.10E+00    4.1     0.00000704     -2872.3883257393 -4.06E-04
    81 OT DIIS     0.10E+00    4.1     0.00000685     -2872.3889103331 -5.85E-04
    82 OT DIIS     0.10E+00    4.1     0.00000678     -2872.3893203423 -4.10E-04
    83 OT DIIS     0.10E+00    4.1     0.00000680     -2872.3894051551 -8.48E-05
    84 OT DIIS     0.10E+00    4.1     0.00000664     -2872.3895405498 -1.35E-04
    85 OT DIIS     0.10E+00    4.1     0.00000658     -2872.3896211324 -8.06E-05
    86 OT DIIS     0.10E+00    4.1     0.00000666     -2872.3898969659 -2.76E-04
    87 OT DIIS     0.10E+00    4.1     0.00000630     -2872.3901443341 -2.47E-04
    88 OT DIIS     0.10E+00    4.1     0.00000625     -2872.3904556956 -3.11E-04
    89 OT DIIS     0.10E+00    4.1     0.00000607     -2872.3907249993 -2.69E-04
    90 OT DIIS     0.10E+00    4.1     0.00000656     -2872.3908728428 -1.48E-04
    91 OT DIIS     0.10E+00    4.1     0.00000588     -2872.3911276009 -2.55E-04
    92 OT DIIS     0.10E+00    4.1     0.00000577     -2872.3913361088 -2.09E-04
    93 OT DIIS     0.10E+00    4.1     0.00000564     -2872.3916857250 -3.50E-04
    94 OT DIIS     0.10E+00    4.1     0.00000556     -2872.3918489064 -1.63E-04
    95 OT DIIS     0.10E+00    4.1     0.00000550     -2872.3919716940 -1.23E-04
    96 OT DIIS     0.10E+00    4.1     0.00000542     -2872.3921377174 -1.66E-04
    97 OT DIIS     0.10E+00    4.1     0.00000631     -2872.3922964774 -1.59E-04
    98 OT DIIS     0.10E+00    4.1     0.00000521     -2872.3926173429 -3.21E-04
    99 OT DIIS     0.10E+00    4.1     0.00000511     -2872.3929382276 -3.21E-04
   100 OT DIIS     0.10E+00    4.1     0.00000507     -2872.3930090622 -7.08E-05
   101 OT DIIS     0.10E+00    4.1     0.00000492     -2872.3933193217 -3.10E-04
   102 OT DIIS     0.10E+00    4.1     0.00000484     -2872.3934990452 -1.80E-04
   103 OT DIIS     0.10E+00    4.1     0.00000528     -2872.3936488447 -1.50E-04
   104 OT DIIS     0.10E+00    4.1     0.00000480     -2872.3939391306 -2.90E-04
   105 OT DIIS     0.10E+00    4.1     0.00000483     -2872.3939355163  3.61E-06
   106 OT DIIS     0.10E+00    4.1     0.00000450     -2872.3942256915 -2.90E-04
   107 OT SD       0.10E+00    4.1     0.00000503     -2872.3942532041 -2.75E-05
   108 OT SD       0.10E+00    4.1     0.00000473     -2872.3942593441 -6.14E-06
   109 OT SD       0.10E+00    4.1     0.00000459     -2872.3942648839 -5.54E-06
   110 OT DIIS     0.10E+00    4.1     0.00000452     -2872.3942701571 -5.27E-06
   111 OT DIIS     0.10E+00    4.1     0.00000434     -2872.3944509215 -1.81E-04
   112 OT DIIS     0.10E+00    4.1     0.00000431     -2872.3945548149 -1.04E-04
   113 OT DIIS     0.10E+00    4.1     0.00000423     -2872.3946823004 -1.27E-04
   114 OT DIIS     0.10E+00    4.1     0.00000416     -2872.3948143100 -1.32E-04
   115 OT DIIS     0.10E+00    4.1     0.00000418     -2872.3951006274 -2.86E-04
   116 OT DIIS     0.10E+00    4.1     0.00000401     -2872.3952739050 -1.73E-04
   117 OT DIIS     0.10E+00    4.1     0.00000398     -2872.3953931014 -1.19E-04
   118 OT DIIS     0.10E+00    4.1     0.00000430     -2872.3956504898 -2.57E-04
   119 OT DIIS     0.10E+00    4.1     0.00000382     -2872.3957226390 -7.21E-05
   120 OT SD       0.10E+00    4.1     0.00000392     -2872.3957579073 -3.53E-05

  Leaving inner SCF loop after reaching   120 steps.


  Electronic density on regular grids:      -1056.0000000021       -0.0000000021
  Core density on regular grids:             1055.9999999995       -0.0000000005
  Total charge density on r-space grids:       -0.0000000026
  Total charge density g-space grids:          -0.0000000026

  Overlap energy of the core charge distribution:               0.00001072146892
  Self energy of the core charge distribution:              -6954.02004235612549
  Core Hamiltonian energy:                                   1868.77889570898697
  Hartree energy:                                            2783.06895943409427
  Exchange-correlation energy:                               -568.73541846395437
  Dispersion energy:                                           -1.48816295173906

  Total energy:                                             -2872.39575790726849

  outer SCF iter =    1 RMS gradient =   0.39E-05 energy =      -2872.3957579073

  ----------------------------------- OT ---------------------------------------
  Minimizer      : DIIS                : direct inversion
                                         in the iterative subspace
                                         using   7 DIIS vectors
                                         safer DIIS on
  Preconditioner : FULL_SINGLE_INVERSE : inversion of 
                                         H + eS - 2*(Sc)(c^T*H*c+const)(Sc)^T
  Precond_solver : INVERSE_UPDATE
  stepsize       :    0.10000000                  energy_gap     :    0.10000000
  eps_taylor     :   0.10000E-15                  max_taylor     :             4
  ----------------------------------- OT ---------------------------------------

  Step     Update method      Time    Convergence         Total energy    Change
  ------------------------------------------------------------------------------


     Lanczos converged:  F threshold:   0.100E-02
     Est. extremal eigenvalues:    0.204E+02   0.480E-01
     Est. condition number :    0.425E+03
     Hotelling iter   1 1.00000000   0.991E+00       0.613    88888.816
     Hotelling iter   2 1.00000000   0.965E+00       0.189   287894.783
     Hotelling iter   3 1.00000000   0.869E+00       0.187   290558.477
     Hotelling iter   4 1.00000000   0.591E+00       0.189   288697.774
     Hotelling iter   5 1.00000000   0.176E+00       0.184   295496.177



     Lanczos converged:  F threshold:   0.100E-02
     Est. extremal eigenvalues:    0.204E+02   0.480E-01
     Est. condition number :    0.425E+03
     Hotelling iter   1 1.00000000   0.991E+00       0.596    91393.551
     Hotelling iter   2 1.00000000   0.965E+00       0.185   293845.074
     Hotelling iter   3 1.00000000   0.869E+00       0.183   297093.352
     Hotelling iter   4 1.00000000   0.591E+00       0.187   291162.666
     Hotelling iter   5 1.00000000   0.176E+00       0.184   295587.206

     1 OT DIIS     0.10E+00   13.3     0.00002425     -2872.3957617160 -3.81E-06
     2 OT DIIS     0.10E+00    3.8     0.00001983     -2872.3958905258 -1.29E-04
     3 OT DIIS     0.10E+00    3.8     0.00001787     -2872.3960081441 -1.18E-04
     4 OT DIIS     0.10E+00    3.9     0.00001479     -2872.3961334082 -1.25E-04
     5 OT DIIS     0.10E+00    3.9     0.00001325     -2872.3962520966 -1.19E-04
     6 OT DIIS     0.10E+00    3.9     0.00001281     -2872.3963146268 -6.25E-05
     7 OT DIIS     0.10E+00    3.9     0.00001209     -2872.3964302996 -1.16E-04
     8 OT DIIS     0.10E+00    3.9     0.00001180     -2872.3965450122 -1.15E-04
     9 OT DIIS     0.10E+00    3.9     0.00001148     -2872.3966644375 -1.19E-04
    10 OT DIIS     0.10E+00    3.9     0.00001100     -2872.3968753866 -2.11E-04
    11 OT DIIS     0.10E+00    3.9     0.00001066     -2872.3970901323 -2.15E-04
    12 OT DIIS     0.10E+00    3.9     0.00001030     -2872.3972821052 -1.92E-04
    13 OT DIIS     0.10E+00    3.9     0.00001001     -2872.3974890723 -2.07E-04
    14 OT DIIS     0.10E+00    3.9     0.00000964     -2872.3976770010 -1.88E-04
    15 OT DIIS     0.10E+00    3.9     0.00000925     -2872.3978608186 -1.84E-04
    16 OT DIIS     0.10E+00    3.9     0.00000882     -2872.3980154525 -1.55E-04
    17 OT DIIS     0.10E+00    4.1     0.00000849     -2872.3981635310 -1.48E-04
    18 OT DIIS     0.10E+00    4.1     0.00000823     -2872.3982786858 -1.15E-04
    19 OT DIIS     0.10E+00    4.1     0.00000794     -2872.3984015707 -1.23E-04
    20 OT DIIS     0.10E+00    4.1     0.00000770     -2872.3985021402 -1.01E-04
    21 OT DIIS     0.10E+00    4.1     0.00000754     -2872.3985712595 -6.91E-05
    22 OT DIIS     0.10E+00    4.1     0.00000736     -2872.3986438173 -7.26E-05
    23 OT DIIS     0.10E+00    4.1     0.00000719     -2872.3986988657 -5.50E-05
    24 OT DIIS     0.10E+00    4.1     0.00000704     -2872.3987632172 -6.44E-05
    25 OT DIIS     0.10E+00    4.1     0.00000693     -2872.3988083553 -4.51E-05
    26 OT DIIS     0.10E+00    4.1     0.00000684     -2872.3988476373 -3.93E-05
    27 OT DIIS     0.10E+00    4.1     0.00000676     -2872.3988836712 -3.60E-05
    28 OT DIIS     0.10E+00    4.1     0.00000669     -2872.3989225794 -3.89E-05
    29 OT DIIS     0.10E+00    4.1     0.00000665     -2872.3989575360 -3.50E-05
    30 OT DIIS     0.10E+00    4.1     0.00000659     -2872.3989906657 -3.31E-05
    31 OT DIIS     0.10E+00    4.1     0.00000653     -2872.3990188140 -2.81E-05
    32 OT DIIS     0.10E+00    4.1     0.00000647     -2872.3990560704 -3.73E-05
    33 OT DIIS     0.10E+00    4.1     0.00000642     -2872.3990889093 -3.28E-05
    34 OT DIIS     0.10E+00    4.1     0.00000638     -2872.3991275784 -3.87E-05
    35 OT DIIS     0.10E+00    4.1     0.00000632     -2872.3991687326 -4.12E-05
    36 OT DIIS     0.10E+00    4.1     0.00000627     -2872.3992099036 -4.12E-05
    37 OT DIIS     0.10E+00    4.1     0.00000622     -2872.3992457548 -3.59E-05
    38 OT DIIS     0.10E+00    4.1     0.00000618     -2872.3992954588 -4.97E-05
    39 OT DIIS     0.10E+00    4.1     0.00000612     -2872.3993318455 -3.64E-05
    40 OT DIIS     0.10E+00    4.1     0.00000603     -2872.3993958484 -6.40E-05
    41 OT DIIS     0.10E+00    4.1     0.00000597     -2872.3994412823 -4.54E-05
    42 OT DIIS     0.10E+00    4.1     0.00000591     -2872.3994854196 -4.41E-05
    43 OT DIIS     0.10E+00    4.1     0.00000585     -2872.3995313712 -4.60E-05
    44 OT DIIS     0.10E+00    4.1     0.00000579     -2872.3995748690 -4.35E-05
    45 OT DIIS     0.10E+00    4.1     0.00000575     -2872.3996055657 -3.07E-05
    46 OT DIIS     0.10E+00    4.1     0.00000571     -2872.3996422367 -3.67E-05
    47 OT DIIS     0.10E+00    4.1     0.00000568     -2872.3996628177 -2.06E-05
    48 OT DIIS     0.10E+00    4.1     0.00000563     -2872.3996953052 -3.25E-05
    49 OT DIIS     0.10E+00    4.1     0.00000561     -2872.3997152389 -1.99E-05
    50 OT DIIS     0.10E+00    4.1     0.00000559     -2872.3997305635 -1.53E-05
    51 OT DIIS     0.10E+00    4.1     0.00000559     -2872.3997432206 -1.27E-05
    52 OT DIIS     0.10E+00    4.1     0.00000559     -2872.3997500235 -6.80E-06
    53 OT SD       0.10E+00    4.1     0.00000559     -2872.3997514520 -1.43E-06
    54 OT SD       0.10E+00    4.1     0.00000560     -2872.3997593318 -7.88E-06
    55 OT DIIS     0.10E+00    4.1     0.00000561     -2872.3997672358 -7.90E-06
    56 OT DIIS     0.10E+00    4.1     0.00000555     -2872.3997857814 -1.85E-05
    57 OT SD       0.10E+00    4.1     0.00000550     -2872.3999901454 -2.04E-04
    58 OT DIIS     0.10E+00    4.1     0.00000550     -2872.3999973409 -7.20E-06
    59 OT DIIS     0.10E+00    4.1     0.00000538     -2872.4001598537 -1.63E-04
    60 OT DIIS     0.10E+00    4.1     0.00000526     -2872.4001935937 -3.37E-05
    61 OT DIIS     0.10E+00    4.1     0.00000502     -2872.4004219379 -2.28E-04
    62 OT DIIS     0.10E+00    4.1     0.00000518     -2872.4004665460 -4.46E-05
    63 OT DIIS     0.10E+00    4.1     0.00000497     -2872.4005098643 -4.33E-05
    64 OT DIIS     0.10E+00    4.1     0.00000482     -2872.4005616402 -5.18E-05
    65 OT DIIS     0.10E+00    4.1     0.00000481     -2872.4005949235 -3.33E-05
    66 OT SD       0.10E+00    4.1     0.00000474     -2872.4006396326 -4.47E-05
    67 OT DIIS     0.10E+00    4.1     0.00000475     -2872.4006452692 -5.64E-06
    68 OT DIIS     0.10E+00    4.1     0.00000473     -2872.4006635046 -1.82E-05
    69 OT DIIS     0.10E+00    4.1     0.00000473     -2872.4006727001 -9.20E-06
    70 OT SD       0.10E+00    4.1     0.00000473     -2872.4006799536 -7.25E-06
    71 OT SD       0.10E+00    4.1     0.00000474     -2872.4006855907 -5.64E-06
    72 OT SD       0.10E+00    4.1     0.00000475     -2872.4006912526 -5.66E-06
    73 OT SD       0.10E+00    4.1     0.00000477     -2872.4006969509 -5.70E-06
    74 OT SD       0.10E+00    4.1     0.00000480     -2872.4007026973 -5.75E-06
    75 OT SD       0.10E+00    4.1     0.00000485     -2872.4007085046 -5.81E-06
    76 OT SD       0.10E+00    4.1     0.00000491     -2872.4007143855 -5.88E-06
    77 OT SD       0.10E+00    4.1     0.00000500     -2872.4007203518 -5.97E-06
    78 OT DIIS     0.10E+00    4.1     0.00000516     -2872.4007264098 -6.06E-06
    79 OT SD       0.10E+00    4.1     0.00000459     -2872.4007335503 -7.14E-06
    80 OT DIIS     0.10E+00    4.1     0.00000459     -2872.4007388115 -5.26E-06
    81 OT DIIS     0.10E+00    4.1     0.00000456     -2872.4007649328 -2.61E-05
    82 OT DIIS     0.10E+00    4.1     0.00000456     -2872.4007772317 -1.23E-05
    83 OT SD       0.10E+00    4.1     0.00000456     -2872.4007907989 -1.36E-05
    84 OT SD       0.10E+00    4.2     0.00000456     -2872.4007960398 -5.24E-06
    85 OT DIIS     0.10E+00    4.1     0.00000457     -2872.4008012918 -5.25E-06
    86 OT DIIS     0.10E+00    4.1     0.00000452     -2872.4008428381 -4.15E-05
    87 OT DIIS     0.10E+00    4.1     0.00000451     -2872.4008693430 -2.65E-05
    88 OT DIIS     0.10E+00    4.1     0.00000450     -2872.4008908290 -2.15E-05
    89 OT DIIS     0.10E+00    4.1     0.00000449     -2872.4009146584 -2.38E-05
    90 OT DIIS     0.10E+00    4.1     0.00000449     -2872.4009214701 -6.81E-06
    91 OT DIIS     0.10E+00    4.1     0.00000449     -2872.4009303326 -8.86E-06
    92 OT SD       0.10E+00    4.1     0.00000449     -2872.4009310466 -7.14E-07
    93 OT SD       0.10E+00    4.1     0.00000449     -2872.4009361150 -5.07E-06
    94 OT SD       0.10E+00    4.1     0.00000450     -2872.4009411950 -5.08E-06
    95 OT SD       0.10E+00    4.1     0.00000452     -2872.4009462919 -5.10E-06
    96 OT SD       0.10E+00    4.1     0.00000455     -2872.4009514099 -5.12E-06
    97 OT SD       0.10E+00    4.1     0.00000461     -2872.4009565516 -5.14E-06
    98 OT SD       0.10E+00    4.1     0.00000470     -2872.4009617150 -5.16E-06
    99 OT SD       0.10E+00    4.1     0.00000489     -2872.4009668872 -5.17E-06
   100 OT DIIS     0.10E+00    4.1     0.00000524     -2872.4009720318 -5.14E-06
   101 OT DIIS     0.10E+00    4.1     0.00000440     -2872.4009746137 -2.58E-06
   102 OT DIIS     0.10E+00    4.1     0.00000438     -2872.4009899427 -1.53E-05
   103 OT DIIS     0.10E+00    4.1     0.00000437     -2872.4010058838 -1.59E-05
   104 OT DIIS     0.10E+00    4.1     0.00000436     -2872.4010266523 -2.08E-05
   105 OT DIIS     0.10E+00    4.1     0.00000435     -2872.4010809961 -5.43E-05
   106 OT DIIS     0.10E+00    4.1     0.00000435     -2872.4010870226 -6.03E-06
   107 OT DIIS     0.10E+00    4.1     0.00000435     -2872.4010930027 -5.98E-06
   108 OT DIIS     0.10E+00    4.1     0.00000435     -2872.4010931275 -1.25E-07
   109 OT DIIS     0.10E+00    4.1     0.00000434     -2872.4011041249 -1.10E-05
   110 OT DIIS     0.10E+00    4.1     0.00000434     -2872.4011125348 -8.41E-06
   111 OT DIIS     0.10E+00    4.1     0.00000432     -2872.4011247823 -1.22E-05
   112 OT DIIS     0.10E+00    4.1     0.00000431     -2872.4011845738 -5.98E-05
   113 OT DIIS     0.10E+00    4.1     0.00000431     -2872.4011940595 -9.49E-06
   114 OT SD       0.10E+00    4.1     0.00000431     -2872.4012033493 -9.29E-06
   115 OT SD       0.10E+00    4.1     0.00000431     -2872.4012080304 -4.68E-06
   116 OT DIIS     0.10E+00    4.1     0.00000432     -2872.4012127262 -4.70E-06
   117 OT DIIS     0.10E+00    4.1     0.00000429     -2872.4012208249 -8.10E-06
   118 OT DIIS     0.10E+00    4.1     0.00000428     -2872.4012530052 -3.22E-05
   119 OT DIIS     0.10E+00    4.1     0.00000427     -2872.4012816094 -2.86E-05
   120 OT DIIS     0.10E+00    4.1     0.00000428     -2872.4012841211 -2.51E-06

  Leaving inner SCF loop after reaching   120 steps.


  Electronic density on regular grids:      -1056.0000000021       -0.0000000021
  Core density on regular grids:             1055.9999999995       -0.0000000005
  Total charge density on r-space grids:       -0.0000000026
  Total charge density g-space grids:          -0.0000000026

  Overlap energy of the core charge distribution:               0.00001072146892
  Self energy of the core charge distribution:              -6954.02004235612549
  Core Hamiltonian energy:                                   1868.75786947671736
  Hartree energy:                                            2783.07662183187404
  Exchange-correlation energy:                               -568.72758084330826
  Dispersion energy:                                           -1.48816295173906

  Total energy:                                             -2872.40128412111244

  outer SCF iter =    2 RMS gradient =   0.43E-05 energy =      -2872.4012841211

  ----------------------------------- OT ---------------------------------------
  Minimizer      : DIIS                : direct inversion
                                         in the iterative subspace
                                         using   7 DIIS vectors
                                         safer DIIS on
  Preconditioner : FULL_SINGLE_INVERSE : inversion of 
                                         H + eS - 2*(Sc)(c^T*H*c+const)(Sc)^T
  Precond_solver : INVERSE_UPDATE
  stepsize       :    0.10000000                  energy_gap     :    0.10000000
  eps_taylor     :   0.10000E-15                  max_taylor     :             4
  ----------------------------------- OT ---------------------------------------

  Step     Update method      Time    Convergence         Total energy    Change
  ------------------------------------------------------------------------------


     Lanczos converged:  T threshold:   0.100E-02
     Est. extremal eigenvalues:    0.344E+01   0.207E+00
     Est. condition number :    0.166E+02
     Hotelling iter   1 1.00000000   0.796E+00       0.300   181543.859
     Hotelling iter   2 1.00000000   0.437E+00       0.193   282515.133
     Hotelling iter   3 1.00000000   0.781E-01       0.193   282039.633



     Lanczos converged:  T threshold:   0.100E-02
     Est. extremal eigenvalues:    0.343E+01   0.207E+00
     Est. condition number :    0.166E+02
     Hotelling iter   1 1.00000000   0.795E+00       0.331   164483.425
     Hotelling iter   2 1.00000000   0.436E+00       0.222   245157.554
     Hotelling iter   3 1.00000000   0.777E-01       0.222   245097.929

     1 OT DIIS     0.10E+00   11.6     0.00000485     -2872.4012917055 -7.58E-06
     2 OT DIIS     0.10E+00    3.8     0.00000486     -2872.4012976397 -5.93E-06
     3 OT SD       0.10E+00    3.8     0.00000486     -2872.4012987560 -1.12E-06
     4 OT SD       0.10E+00    3.9     0.00000488     -2872.4013047142 -5.96E-06
     5 OT SD       0.10E+00    3.9     0.00000491     -2872.4013107108 -6.00E-06
     6 OT SD       0.10E+00    3.9     0.00000499     -2872.4013167566 -6.05E-06
     7 OT SD       0.10E+00    3.9     0.00000526     -2872.4013228229 -6.07E-06
     8 OT SD       0.10E+00    3.9     0.00000623     -2872.4013286808 -5.86E-06
     9 OT SD       0.10E+00    3.9     0.00000949     -2872.4013331210 -4.44E-06
    10 OT DIIS     0.10E+00    3.9     0.00001835     -2872.4013301174  3.00E-06
    11 OT DIIS     0.10E+00    3.9     0.00000470     -2872.4013275522  2.57E-06
    12 OT DIIS     0.10E+00    3.9     0.00000470     -2872.4013323521 -4.80E-06
    13 OT SD       0.10E+00    3.9     0.00000470     -2872.4013358521 -3.50E-06
    14 OT SD       0.10E+00    3.9     0.00000470     -2872.4013414141 -5.56E-06
    15 OT SD       0.10E+00    3.9     0.00000471     -2872.4013469890 -5.57E-06
    16 OT SD       0.10E+00    3.9     0.00000473     -2872.4013525820 -5.59E-06
    17 OT SD       0.10E+00    3.9     0.00000477     -2872.4013581954 -5.61E-06
    18 OT DIIS     0.10E+00    3.9     0.00000490     -2872.4013638169 -5.62E-06
    19 OT DIIS     0.10E+00    3.9     0.00000465     -2872.4013657059 -1.89E-06
    20 OT DIIS     0.10E+00    3.9     0.00000465     -2872.4013736271 -7.92E-06
    21 OT DIIS     0.10E+00    3.9     0.00000464     -2872.4013885228 -1.49E-05
    22 OT DIIS     0.10E+00    3.9     0.00000465     -2872.4013947491 -6.23E-06
    23 OT DIIS     0.10E+00    3.9     0.00000465     -2872.4013952136 -4.64E-07
    24 OT DIIS     0.10E+00    3.9     0.00000464     -2872.4014006678 -5.45E-06
    25 OT DIIS     0.10E+00    3.9     0.00000464     -2872.4014090875 -8.42E-06
    26 OT DIIS     0.10E+00    4.0     0.00000463     -2872.4014370336 -2.79E-05
    27 OT DIIS     0.10E+00    3.9     0.00000463     -2872.4014461093 -9.08E-06
    28 OT DIIS     0.10E+00    3.9     0.00000463     -2872.4014599699 -1.39E-05
    29 OT SD       0.10E+00    3.9     0.00000463     -2872.4014641994 -4.23E-06
    30 OT SD       0.10E+00    4.0     0.00000463     -2872.4014695954 -5.40E-06
    31 OT SD       0.10E+00    3.9     0.00000464     -2872.4014750068 -5.41E-06
    32 OT DIIS     0.10E+00    3.9     0.00000467     -2872.4014804366 -5.43E-06
    33 OT SD       0.10E+00    3.9     0.00000460     -2872.4014873906 -6.95E-06
    34 OT DIIS     0.10E+00    3.9     0.00000462     -2872.4014926738 -5.28E-06
    35 OT DIIS     0.10E+00    3.9     0.00000457     -2872.4015998287 -1.07E-04
    36 OT DIIS     0.10E+00    3.9     0.00000454     -2872.4016048514 -5.02E-06
    37 OT DIIS     0.10E+00    3.9     0.00000453     -2872.4016463378 -4.15E-05
    38 OT SD       0.10E+00    3.9     0.00000453     -2872.4016524875 -6.15E-06
    39 OT DIIS     0.10E+00    3.9     0.00000455     -2872.4016576466 -5.16E-06
    40 OT SD       0.10E+00    3.9     0.00000455     -2872.4016792211 -2.16E-05
    41 OT DIIS     0.10E+00    3.9     0.00000473     -2872.4016842006 -4.98E-06
    42 OT DIIS     0.10E+00    3.9     0.00000461     -2872.4018379590 -1.54E-04
    43 OT DIIS     0.10E+00    3.9     0.00000446     -2872.4018460160 -8.06E-06
    44 OT DIIS     0.10E+00    4.1     0.00000444     -2872.4019091271 -6.31E-05
    45 OT SD       0.10E+00    4.1     0.00000431     -2872.4019421592 -3.30E-05
    46 OT SD       0.10E+00    4.1     0.00000439     -2872.4019467870 -4.63E-06
    47 OT SD       0.10E+00    4.1     0.00000463     -2872.4019513958 -4.61E-06
    48 OT SD       0.10E+00    4.1     0.00000550     -2872.4019558093 -4.41E-06
    49 OT DIIS     0.10E+00    4.1     0.00000825     -2872.4019591498 -3.34E-06
    50 OT SD       0.10E+00    4.1     0.00000427     -2872.4019860423 -2.69E-05
    51 OT DIIS     0.10E+00    4.1     0.00000442     -2872.4019903782 -4.34E-06
    52 OT SD       0.10E+00    4.1     0.00000433     -2872.4021283142 -1.38E-04
    53 OT DIIS     0.10E+00    4.1     0.00000472     -2872.4021323168 -4.00E-06
    54 OT DIIS     0.10E+00    4.0     0.00000407     -2872.4021559879 -2.37E-05
    55 OT DIIS     0.10E+00    4.1     0.00000407     -2872.4021607768 -4.79E-06
    56 OT DIIS     0.10E+00    4.1     0.00000407     -2872.4021610647 -2.88E-07
    57 OT DIIS     0.10E+00    4.1     0.00000406     -2872.4021673655 -6.30E-06
    58 OT DIIS     0.10E+00    4.1     0.00000403     -2872.4021845839 -1.72E-05
    59 OT DIIS     0.10E+00    4.1     0.00000403     -2872.4022196336 -3.50E-05
    60 OT DIIS     0.10E+00    4.1     0.00000401     -2872.4022349594 -1.53E-05
    61 OT SD       0.10E+00    4.1     0.00000401     -2872.4022439826 -9.02E-06
    62 OT SD       0.10E+00    4.1     0.00000403     -2872.4022480406 -4.06E-06
    63 OT SD       0.10E+00    4.1     0.00000406     -2872.4022521163 -4.08E-06
    64 OT SD       0.10E+00    4.1     0.00000415     -2872.4022562114 -4.10E-06
    65 OT SD       0.10E+00    4.1     0.00000446     -2872.4022602849 -4.07E-06
    66 OT SD       0.10E+00    4.1     0.00000550     -2872.4022641141 -3.83E-06
    67 OT SD       0.10E+00    4.1     0.00000861     -2872.4022666724 -2.56E-06
    68 OT SD       0.10E+00    4.1     0.00001631     -2872.4022633437  3.33E-06
    69 OT DIIS     0.10E+00    4.1     0.00003362     -2872.4022331861  3.02E-05
    70 OT DIIS     0.10E+00    4.1     0.00000380     -2872.4022605033 -2.73E-05
    71 OT DIIS     0.10E+00    4.1     0.00000379     -2872.4022636724 -3.17E-06
    72 OT DIIS     0.10E+00    4.1     0.00000379     -2872.4022659018 -2.23E-06
    73 OT SD       0.10E+00    4.1     0.00000379     -2872.4022675790 -1.68E-06
    74 OT SD       0.10E+00    4.1     0.00000379     -2872.4022711962 -3.62E-06
    75 OT SD       0.10E+00    4.1     0.00000381     -2872.4022748306 -3.63E-06
    76 OT SD       0.10E+00    4.1     0.00000384     -2872.4022784888 -3.66E-06
    77 OT SD       0.10E+00    4.1     0.00000390     -2872.4022821733 -3.68E-06
    78 OT SD       0.10E+00    4.1     0.00000409     -2872.4022858626 -3.69E-06
    79 OT SD       0.10E+00    4.1     0.00000482     -2872.4022894188 -3.56E-06
    80 OT SD       0.10E+00    4.1     0.00000728     -2872.4022921348 -2.72E-06
    81 OT SD       0.10E+00    4.1     0.00001400     -2872.4022905084  1.63E-06
    82 OT DIIS     0.10E+00    4.1     0.00002996     -2872.4022671821  2.33E-05
    83 OT SD       0.10E+00    4.1     0.00000372     -2872.4022893272 -2.21E-05
    84 OT SD       0.10E+00    4.1     0.00000373     -2872.4022928026 -3.48E-06
    85 OT SD       0.10E+00    4.1     0.00000377     -2872.4022962830 -3.48E-06
    86 OT SD       0.10E+00    4.1     0.00000389     -2872.4022997557 -3.47E-06
    87 OT SD       0.10E+00    4.1     0.00000428     -2872.4023031569 -3.40E-06
    88 OT SD       0.10E+00    4.1     0.00000548     -2872.4023062254 -3.07E-06
    89 OT SD       0.10E+00    4.1     0.00000866     -2872.4023079271 -1.70E-06
    90 OT DIIS     0.10E+00    4.1     0.00001579     -2872.4023042041  3.72E-06
    91 OT SD       0.10E+00    4.1     0.00000368     -2872.4022984151  5.79E-06
    92 OT SD       0.10E+00    4.1     0.00000369     -2872.4023018225 -3.41E-06
    93 OT SD       0.10E+00    4.1     0.00000372     -2872.4023052299 -3.41E-06
    94 OT SD       0.10E+00    4.1     0.00000385     -2872.4023086174 -3.39E-06
    95 OT SD       0.10E+00    4.1     0.00000440     -2872.4023118764 -3.26E-06
    96 OT SD       0.10E+00    4.1     0.00000646     -2872.4023144572 -2.58E-06
    97 OT SD       0.10E+00    4.1     0.00001239     -2872.4023135867  8.70E-07
    98 OT DIIS     0.10E+00    4.1     0.00002676     -2872.4022952398  1.83E-05
    99 OT DIIS     0.10E+00    4.1     0.00000365     -2872.4023093742 -1.41E-05
   100 OT SD       0.10E+00    4.1     0.00000365     -2872.4023115998 -2.23E-06
   101 OT SD       0.10E+00    4.1     0.00000366     -2872.4023149641 -3.36E-06
   102 OT SD       0.10E+00    4.1     0.00000367     -2872.4023183322 -3.37E-06
   103 OT SD       0.10E+00    4.1     0.00000371     -2872.4023217018 -3.37E-06
   104 OT SD       0.10E+00    4.1     0.00000384     -2872.4023250540 -3.35E-06
   105 OT SD       0.10E+00    4.1     0.00000431     -2872.4023283031 -3.25E-06
   106 OT SD       0.10E+00    4.1     0.00000585     -2872.4023310856 -2.78E-06
   107 OT SD       0.10E+00    4.1     0.00000994     -2872.4023318727 -7.87E-07
   108 OT DIIS     0.10E+00    4.1     0.00001925     -2872.4023241767  7.70E-06
   109 OT SD       0.10E+00    4.1     0.00000363     -2872.4023215909  2.59E-06
   110 OT SD       0.10E+00    4.1     0.00000364     -2872.4023249180 -3.33E-06
   111 OT SD       0.10E+00    4.1     0.00000365     -2872.4023282476 -3.33E-06
   112 OT SD       0.10E+00    4.1     0.00000367     -2872.4023315778 -3.33E-06
   113 OT SD       0.10E+00    4.1     0.00000378     -2872.4023348931 -3.32E-06
   114 OT SD       0.10E+00    4.1     0.00000419     -2872.4023381194 -3.23E-06
   115 OT SD       0.10E+00    4.1     0.00000564     -2872.4023409139 -2.79E-06
   116 OT SD       0.10E+00    4.1     0.00000986     -2872.4023416842 -7.70E-07
   117 OT DIIS     0.10E+00    4.1     0.00002010     -2872.4023329182  8.77E-06
   118 OT SD       0.10E+00    4.1     0.00000362     -2872.4023338393 -9.21E-07
   119 OT SD       0.10E+00    4.1     0.00000362     -2872.4023371358 -3.30E-06
   120 OT SD       0.10E+00    4.1     0.00000363     -2872.4023404344 -3.30E-06

  Leaving inner SCF loop after reaching   120 steps.


  Electronic density on regular grids:      -1056.0000000021       -0.0000000021
  Core density on regular grids:             1055.9999999995       -0.0000000005
  Total charge density on r-space grids:       -0.0000000026
  Total charge density g-space grids:          -0.0000000026

  Overlap energy of the core charge distribution:               0.00001072146892
  Self energy of the core charge distribution:              -6954.02004235612549
  Core Hamiltonian energy:                                   1868.75306316218257
  Hartree energy:                                            2783.07878548460940
  Exchange-correlation energy:                               -568.72599449478628
  Dispersion energy:                                           -1.48816295173906

  Total energy:                                             -2872.40234043438932

  outer SCF iter =    3 RMS gradient =   0.36E-05 energy =      -2872.4023404344

  ----------------------------------- OT ---------------------------------------
  Minimizer      : DIIS                : direct inversion
                                         in the iterative subspace
                                         using   7 DIIS vectors
                                         safer DIIS on
  Preconditioner : FULL_SINGLE_INVERSE : inversion of 
                                         H + eS - 2*(Sc)(c^T*H*c+const)(Sc)^T
  Precond_solver : INVERSE_UPDATE
  stepsize       :    0.10000000                  energy_gap     :    0.10000000
  eps_taylor     :   0.10000E-15                  max_taylor     :             4
  ----------------------------------- OT ---------------------------------------

  Step     Update method      Time    Convergence         Total energy    Change
  ------------------------------------------------------------------------------


     Lanczos converged:  T threshold:   0.100E-02
     Est. extremal eigenvalues:    0.199E+01   0.448E+00
     Est. condition number :    0.445E+01
     Hotelling iter   1 1.00000000   0.424E+00       0.292   185813.634
     Hotelling iter   2 1.00000000   0.725E-01       0.181   301232.499



     Lanczos converged:  T threshold:   0.100E-02
     Est. extremal eigenvalues:    0.199E+01   0.450E+00
     Est. condition number :    0.442E+01
     Hotelling iter   1 1.00000000   0.422E+00       0.294   184404.252
     Hotelling iter   2 1.00000000   0.714E-01       0.183   297542.782

     1 OT DIIS     0.10E+00   10.8     0.00000371     -2872.4023437305 -3.30E-06
     2 OT DIIS     0.10E+00    3.8     0.00000389     -2872.4023470572 -3.33E-06
     3 OT SD       0.10E+00    3.8     0.00000367     -2872.4023482023 -1.15E-06
     4 OT SD       0.10E+00    3.9     0.00000368     -2872.4023515983 -3.40E-06
     5 OT SD       0.10E+00    3.9     0.00000370     -2872.4023550082 -3.41E-06
     6 OT SD       0.10E+00    3.9     0.00000377     -2872.4023584260 -3.42E-06
     7 OT SD       0.10E+00    3.9     0.00000407     -2872.4023618033 -3.38E-06
     8 OT SD       0.10E+00    3.9     0.00000530     -2872.4023648647 -3.06E-06
     9 OT SD       0.10E+00    3.9     0.00000939     -2872.4023661217 -1.26E-06
    10 OT SD       0.10E+00    3.9     0.00002021     -2872.4023575526  8.57E-06
    11 OT DIIS     0.10E+00    3.9     0.00004624     -2872.4022957146  6.18E-05
    12 OT DIIS     0.10E+00    3.9     0.00000364     -2872.4023389448 -4.32E-05
    13 OT DIIS     0.10E+00    4.0     0.00000364     -2872.4023395103 -5.66E-07
    14 OT SD       0.10E+00    3.8     0.00000364     -2872.4023424919 -2.98E-06
    15 OT SD       0.10E+00    3.9     0.00000364     -2872.4023458287 -3.34E-06
    16 OT SD       0.10E+00    3.9     0.00000365     -2872.4023491686 -3.34E-06
    17 OT SD       0.10E+00    4.2     0.00000366     -2872.4023525124 -3.34E-06
    18 OT DIIS     0.10E+00    4.0     0.00000368     -2872.4023558585 -3.35E-06
    19 OT SD       0.10E+00    4.0     0.00000363     -2872.4023586112 -2.75E-06
    20 OT DIIS     0.10E+00    4.0     0.00000372     -2872.4023618704 -3.26E-06
    21 OT SD       0.10E+00    4.0     0.00000361     -2872.4023890055 -2.71E-05
    22 OT SD       0.10E+00    3.9     0.00000361     -2872.4023922814 -3.28E-06
    23 OT DIIS     0.10E+00    3.9     0.00000363     -2872.4023955625 -3.28E-06
    24 OT DIIS     0.10E+00    4.1     0.00000359     -2872.4023969091 -1.35E-06
    25 OT DIIS     0.10E+00    4.1     0.00000359     -2872.4024073490 -1.04E-05
    26 OT DIIS     0.10E+00    4.0     0.00000356     -2872.4024542749 -4.69E-05
    27 OT DIIS     0.10E+00    4.1     0.00000357     -2872.4024922027 -3.79E-05
    28 OT DIIS     0.10E+00    3.9     0.00000354     -2872.4025025588 -1.04E-05
    29 OT DIIS     0.10E+00    4.0     0.00000354     -2872.4025158847 -1.33E-05
    30 OT DIIS     0.10E+00    4.2     0.00000353     -2872.4025197475 -3.86E-06
    31 OT SD       0.10E+00    4.4     0.00000353     -2872.4025203475 -6.00E-07
    32 OT DIIS     0.10E+00   10.7     0.00000354     -2872.4025234965 -3.15E-06
    33 OT SD       0.10E+00    4.3     0.00000354     -2872.4025263538 -2.86E-06
    34 OT SD       0.10E+00    4.2     0.00000355     -2872.4025295021 -3.15E-06
    35 OT SD       0.10E+00    4.7     0.00000359     -2872.4025326535 -3.15E-06
    36 OT SD       0.10E+00    5.3     0.00000372     -2872.4025357919 -3.14E-06
    37 OT DIIS     0.10E+00    6.3     0.00000417     -2872.4025388418 -3.05E-06
    38 OT DIIS     0.10E+00   15.2     0.00000349     -2872.4025574000 -1.86E-05
    39 OT DIIS     0.10E+00   17.4     0.00000348     -2872.4025923855 -3.50E-05
    40 OT DIIS     0.10E+00   15.9     0.00000344     -2872.4026437315 -5.13E-05
    41 OT DIIS     0.10E+00    6.3     0.00000341     -2872.4026548176 -1.11E-05
    42 OT DIIS     0.10E+00    8.4     0.00000339     -2872.4026850116 -3.02E-05
    43 OT DIIS     0.10E+00    6.5     0.00000337     -2872.4027136589 -2.86E-05
    44 OT DIIS     0.10E+00    7.0     0.00000336     -2872.4027318342 -1.82E-05
    45 OT DIIS     0.10E+00    6.7     0.00000336     -2872.4027336232 -1.79E-06
    46 OT DIIS     0.10E+00    6.2     0.00000337     -2872.4027385349 -4.91E-06
    47 OT SD       0.10E+00    8.6     0.00000336     -2872.4027388064 -2.71E-07
    48 OT DIIS     0.10E+00   12.2     0.00000338     -2872.4027416535 -2.85E-06
    49 OT SD       0.10E+00    6.9     0.00000337     -2872.4027459972 -4.34E-06
    50 OT DIIS     0.10E+00    9.1     0.00000341     -2872.4027488367 -2.84E-06
    51 OT SD       0.10E+00    7.2     0.00000336     -2872.4027606492 -1.18E-05
    52 OT DIIS     0.10E+00    6.1     0.00000341     -2872.4027634401 -2.79E-06
    53 OT SD       0.10E+00    8.9     0.00000331     -2872.4027847246 -2.13E-05
    54 OT DIIS     0.10E+00    6.9     0.00000337     -2872.4027874460 -2.72E-06
    55 OT SD       0.10E+00    6.1     0.00000329     -2872.4027917749 -4.33E-06
    56 OT DIIS     0.10E+00    8.4     0.00000332     -2872.4027944864 -2.71E-06
    57 OT SD       0.10E+00   16.9     0.00000329     -2872.4027962822 -1.80E-06
    58 OT SD       0.10E+00    6.2     0.00000330     -2872.4027990110 -2.73E-06
    59 OT SD       0.10E+00    8.4     0.00000331     -2872.4028017522 -2.74E-06
    60 OT SD       0.10E+00   11.5     0.00000335     -2872.4028045065 -2.75E-06
    61 OT SD       0.10E+00    5.5     0.00000346     -2872.4028072622 -2.76E-06
    62 OT SD       0.10E+00    9.1     0.00000387     -2872.4028099544 -2.69E-06
    63 OT SD       0.10E+00    5.4     0.00000530     -2872.4028122766 -2.32E-06
    64 OT SD       0.10E+00    5.7     0.00000935     -2872.4028127945 -5.18E-07
    65 OT SD       0.10E+00    8.0     0.00001914     -2872.4028046832  8.11E-06
    66 OT DIIS     0.10E+00    6.1     0.00004144     -2872.4027546629  5.00E-05
    67 OT SD       0.10E+00    5.9     0.00000324     -2872.4027881451 -3.35E-05
    68 OT SD       0.10E+00    8.5     0.00000326     -2872.4027907939 -2.65E-06
    69 OT SD       0.10E+00    6.9     0.00000330     -2872.4027934537 -2.66E-06
    70 OT SD       0.10E+00    5.9     0.00000344     -2872.4027961126 -2.66E-06
    71 OT SD       0.10E+00    8.9     0.00000394     -2872.4027986922 -2.58E-06
    72 OT SD       0.10E+00   13.3     0.00000570     -2872.4028007908 -2.10E-06
    73 OT SD       0.10E+00    6.3     0.00001072     -2872.4028003948  3.96E-07
    74 OT DIIS     0.10E+00    8.9     0.00002294     -2872.4027873160  1.31E-05
    75 OT SD       0.10E+00   12.9     0.00000320     -2872.4027934230 -6.11E-06
    76 OT SD       0.10E+00    6.2     0.00000321     -2872.4027960008 -2.58E-06
    77 OT SD       0.10E+00    7.1     0.00000323     -2872.4027985830 -2.58E-06
    78 OT SD       0.10E+00    9.4     0.00000330     -2872.4028011618 -2.58E-06
    79 OT SD       0.10E+00    6.4     0.00000356     -2872.4028037003 -2.54E-06
    80 OT SD       0.10E+00    5.5     0.00000442     -2872.4028060389 -2.34E-06
    81 OT SD       0.10E+00    5.8     0.00000696     -2872.4028074933 -1.45E-06
    82 OT SD       0.10E+00    5.8     0.00001315     -2872.4028050815  2.41E-06
    83 OT DIIS     0.10E+00    8.4     0.00002692     -2872.4027854773  1.96E-05
    84 OT SD       0.10E+00    7.6     0.00000318     -2872.4027915518 -6.07E-06
    85 OT SD       0.10E+00    5.8     0.00000320     -2872.4027940918 -2.54E-06
    86 OT SD       0.10E+00    8.4     0.00000325     -2872.4027966364 -2.54E-06
    87 OT SD       0.10E+00   12.5     0.00000342     -2872.4027991643 -2.53E-06
    88 OT SD       0.10E+00    6.3     0.00000410     -2872.4028015602 -2.40E-06
    89 OT SD       0.10E+00    7.8     0.00000641     -2872.4028032396 -1.68E-06
    90 OT SD       0.10E+00   10.1     0.00001277     -2872.4028011985  2.04E-06
    91 OT DIIS     0.10E+00    6.9     0.00002819     -2872.4027796888  2.15E-05
    92 OT SD       0.10E+00    8.3     0.00000315     -2872.4027966511 -1.70E-05
    93 OT SD       0.10E+00   10.9     0.00000316     -2872.4027991441 -2.49E-06
    94 OT SD       0.10E+00    6.4     0.00000321     -2872.4028016344 -2.49E-06
    95 OT SD       0.10E+00    7.9     0.00000336     -2872.4028041002 -2.47E-06
    96 OT SD       0.10E+00   11.3     0.00000392     -2872.4028064476 -2.35E-06
    97 OT SD       0.10E+00    6.7     0.00000564     -2872.4028082898 -1.84E-06
    98 OT SD       0.10E+00    9.2     0.00000996     -2872.4028080276  2.62E-07
    99 OT DIIS     0.10E+00   11.9     0.00001944     -2872.4027990163  9.01E-06
   100 OT SD       0.10E+00   11.6     0.00000313     -2872.4027972414  1.77E-06
   101 OT SD       0.10E+00    4.6     0.00000314     -2872.4027997070 -2.47E-06
   102 OT SD       0.10E+00    4.2     0.00000318     -2872.4028021769 -2.47E-06
   103 OT SD       0.10E+00    4.2     0.00000329     -2872.4028046399 -2.46E-06
   104 OT SD       0.10E+00    6.1     0.00000366     -2872.4028070417 -2.40E-06
   105 OT SD       0.10E+00   10.1     0.00000487     -2872.4028091489 -2.11E-06
   106 OT SD       0.10E+00    5.3     0.00000816     -2872.4028099504 -8.01E-07
   107 OT DIIS     0.10E+00    5.8     0.00001593     -2872.4028049567  4.99E-06
   108 OT SD       0.10E+00    8.1     0.00000311     -2872.4028018380  3.12E-06
   109 OT SD       0.10E+00    5.7     0.00000311     -2872.4028042695 -2.43E-06
   110 OT SD       0.10E+00    5.8     0.00000312     -2872.4028067035 -2.43E-06
   111 OT SD       0.10E+00    9.4     0.00000315     -2872.4028091375 -2.43E-06
   112 OT SD       0.10E+00    5.5     0.00000324     -2872.4028115588 -2.42E-06
   113 OT SD       0.10E+00    5.9     0.00000359     -2872.4028139140 -2.36E-06
   114 OT SD       0.10E+00    9.6     0.00000472     -2872.4028159839 -2.07E-06
   115 OT SD       0.10E+00    7.5     0.00000774     -2872.4028168810 -8.97E-07
   116 OT SD       0.10E+00    6.2     0.00001456     -2872.4028130024  3.88E-06
   117 OT DIIS     0.10E+00    7.2     0.00002881     -2872.4027896866  2.33E-05
   118 OT SD       0.10E+00    7.1     0.00000310     -2872.4028038492 -1.42E-05
   119 OT SD       0.10E+00    6.2     0.00000311     -2872.4028062658 -2.42E-06
   120 OT SD       0.10E+00    9.1     0.00000313     -2872.4028086858 -2.42E-06

  Leaving inner SCF loop after reaching   120 steps.


  Electronic density on regular grids:      -1056.0000000021       -0.0000000021
  Core density on regular grids:             1055.9999999995       -0.0000000005
  Total charge density on r-space grids:       -0.0000000026
  Total charge density g-space grids:          -0.0000000026

  Overlap energy of the core charge distribution:               0.00001072146892
  Self energy of the core charge distribution:              -6954.02004235612549
  Core Hamiltonian energy:                                   1868.75013951855999
  Hartree energy:                                            2783.08065509852941
  Exchange-correlation energy:                               -568.72540871654235
  Dispersion energy:                                           -1.48816295173906

  Total energy:                                             -2872.40280868584841

  outer SCF iter =    4 RMS gradient =   0.31E-05 energy =      -2872.4028086858

  ----------------------------------- OT ---------------------------------------
  Minimizer      : DIIS                : direct inversion
                                         in the iterative subspace
                                         using   7 DIIS vectors
                                         safer DIIS on
  Preconditioner : FULL_SINGLE_INVERSE : inversion of 
                                         H + eS - 2*(Sc)(c^T*H*c+const)(Sc)^T
  Precond_solver : INVERSE_UPDATE
  stepsize       :    0.10000000                  energy_gap     :    0.10000000
  eps_taylor     :   0.10000E-15                  max_taylor     :             4
  ----------------------------------- OT ---------------------------------------

  Step     Update method      Time    Convergence         Total energy    Change
  ------------------------------------------------------------------------------


     Lanczos converged:  T threshold:   0.100E-02
     Est. extremal eigenvalues:    0.148E+01   0.602E+00
     Est. condition number :    0.245E+01
     Hotelling iter   1 1.00000000   0.203E+00       0.345   157501.716



     Lanczos converged:  T threshold:   0.100E-02
     Est. extremal eigenvalues:    0.148E+01   0.605E+00
     Est. condition number :    0.244E+01
     Hotelling iter   1 1.00000000   0.200E+00       0.374   145272.644

     1 OT DIIS     0.10E+00   24.5     0.00000309     -2872.4028111018 -2.42E-06
     2 OT DIIS     0.10E+00    6.7     0.00000333     -2872.4028132993 -2.20E-06
     3 OT SD       0.10E+00    6.8     0.00000301     -2872.4028141810 -8.82E-07
     4 OT SD       0.10E+00    6.3     0.00000303     -2872.4028164673 -2.29E-06
     5 OT SD       0.10E+00    5.5     0.00000305     -2872.4028187768 -2.31E-06
     6 OT SD       0.10E+00    8.9     0.00000309     -2872.4028211141 -2.34E-06
     7 OT SD       0.10E+00    5.3     0.00000318     -2872.4028234785 -2.36E-06
     8 OT SD       0.10E+00    6.0     0.00000347     -2872.4028258414 -2.36E-06
     9 OT SD       0.10E+00    6.4     0.00000446     -2872.4028280365 -2.20E-06
    10 OT SD       0.10E+00    5.4     0.00000740     -2872.4028292408 -1.20E-06
    11 OT SD       0.10E+00    6.4     0.00001475     -2872.4028254894  3.75E-06
    12 OT DIIS     0.10E+00    6.6     0.00003150     -2872.4027977209  2.78E-05
    13 OT SD       0.10E+00    4.7     0.00000295     -2872.4027937646  3.96E-06
    14 OT SD       0.10E+00    5.9     0.00000295     -2872.4027959582 -2.19E-06
    15 OT DIIS     0.10E+00    8.3     0.00000296     -2872.4027981496 -2.19E-06
    16 OT DIIS     0.10E+00    5.9     0.00000295     -2872.4027982881 -1.38E-07
    17 OT DIIS     0.10E+00    5.7     0.00000295     -2872.4028066129 -8.32E-06
    18 OT DIIS     0.10E+00    8.8     0.00000294     -2872.4028219155 -1.53E-05
    19 OT DIIS     0.10E+00    7.0     0.00000293     -2872.4028287893 -6.87E-06
    20 OT DIIS     0.10E+00    6.3     0.00000294     -2872.4028363548 -7.57E-06
    21 OT DIIS     0.10E+00    6.8     0.00000294     -2872.4028423429 -5.99E-06
    22 OT SD       0.10E+00    5.1     0.00000291     -2872.4028508724 -8.53E-06
    23 OT DIIS     0.10E+00    5.5     0.00000294     -2872.4028529992 -2.13E-06
    24 OT DIIS     0.10E+00    7.7     0.00000292     -2872.4028579566 -4.96E-06
    25 OT DIIS     0.10E+00    5.7     0.00000291     -2872.4028679785 -1.00E-05
    26 OT DIIS     0.10E+00    5.7     0.00000291     -2872.4028689223 -9.44E-07
    27 OT DIIS     0.10E+00    7.4     0.00000290     -2872.4028795390 -1.06E-05
    28 OT DIIS     0.10E+00    7.4     0.00000290     -2872.4028873319 -7.79E-06
    29 OT DIIS     0.10E+00    6.3     0.00000289     -2872.4029028393 -1.55E-05
    30 OT DIIS     0.10E+00    8.5     0.00000289     -2872.4029213727 -1.85E-05
    31 OT DIIS     0.10E+00    9.6     0.00000288     -2872.4029286956 -7.32E-06
    32 OT DIIS     0.10E+00    6.2     0.00000288     -2872.4029311261 -2.43E-06
    33 OT DIIS     0.10E+00    8.6     0.00000288     -2872.4029365418 -5.42E-06
    34 OT SD       0.10E+00    9.1     0.00000287     -2872.4029387506 -2.21E-06
    35 OT SD       0.10E+00    6.2     0.00000289     -2872.4029408314 -2.08E-06
    36 OT SD       0.10E+00    8.2     0.00000292     -2872.4029429192 -2.09E-06
    37 OT SD       0.10E+00    7.5     0.00000303     -2872.4029450035 -2.08E-06
    38 OT SD       0.10E+00    6.3     0.00000347     -2872.4029470227 -2.02E-06
    39 OT SD       0.10E+00    8.1     0.00000495     -2872.4029486807 -1.66E-06
    40 OT SD       0.10E+00   10.3     0.00000904     -2872.4029485862  9.45E-08
    41 OT DIIS     0.10E+00    5.6     0.00001866     -2872.4029401997  8.39E-06
    42 OT SD       0.10E+00    8.3     0.00000284     -2872.4029371856  3.01E-06
    43 OT SD       0.10E+00    5.6     0.00000284     -2872.4029392213 -2.04E-06
    44 OT SD       0.10E+00    4.1     0.00000285     -2872.4029412602 -2.04E-06
    45 OT SD       0.10E+00    4.1     0.00000285     -2872.4029433030 -2.04E-06
    46 OT SD       0.10E+00    4.1     0.00000287     -2872.4029453497 -2.05E-06
    47 OT SD       0.10E+00    4.1     0.00000291     -2872.4029473969 -2.05E-06
    48 OT SD       0.10E+00    6.2     0.00000304     -2872.4029494288 -2.03E-06
    49 OT SD       0.10E+00    7.4     0.00000349     -2872.4029513818 -1.95E-06
    50 OT SD       0.10E+00   11.0     0.00000479     -2872.4029530099 -1.63E-06
    51 OT SD       0.10E+00    6.2     0.00000800     -2872.4029533663 -3.56E-07
    52 OT SD       0.10E+00    8.9     0.00001490     -2872.4029487791  4.59E-06
    53 OT DIIS     0.10E+00    9.7     0.00002894     -2872.4029248726  2.39E-05
    54 OT SD       0.10E+00    6.2     0.00000283     -2872.4029336814 -8.81E-06
    55 OT SD       0.10E+00    8.1     0.00000283     -2872.4029356972 -2.02E-06
    56 OT SD       0.10E+00    9.9     0.00000283     -2872.4029377160 -2.02E-06
    57 OT SD       0.10E+00    6.4     0.00000284     -2872.4029397387 -2.02E-06
    58 OT SD       0.10E+00    5.5     0.00000286     -2872.4029417650 -2.03E-06
    59 OT SD       0.10E+00   11.8     0.00000293     -2872.4029437886 -2.02E-06
    60 OT SD       0.10E+00    5.3     0.00000319     -2872.4029457748 -1.99E-06
    61 OT SD       0.10E+00    7.5     0.00000414     -2872.4029475602 -1.79E-06
    62 OT SD       0.10E+00    7.0     0.00000696     -2872.4029483886 -8.28E-07
    63 OT DIIS     0.10E+00    6.0     0.00001386     -2872.4029447488  3.64E-06
    64 OT SD       0.10E+00    8.3     0.00000281     -2872.4029402144  4.53E-06
    65 OT SD       0.10E+00    7.2     0.00000282     -2872.4029422116 -2.00E-06
    66 OT SD       0.10E+00    6.1     0.00000282     -2872.4029442118 -2.00E-06
    67 OT SD       0.10E+00    9.4     0.00000283     -2872.4029462148 -2.00E-06
    68 OT SD       0.10E+00    6.2     0.00000287     -2872.4029482175 -2.00E-06
    69 OT SD       0.10E+00    6.0     0.00000300     -2872.4029502043 -1.99E-06
    70 OT SD       0.10E+00    8.4     0.00000347     -2872.4029521052 -1.90E-06
    71 OT SD       0.10E+00    8.3     0.00000500     -2872.4029536107 -1.51E-06
    72 OT SD       0.10E+00    6.1     0.00000908     -2872.4029533332  2.77E-07
    73 OT DIIS     0.10E+00    9.6     0.00001849     -2872.4029449555  8.38E-06
    74 OT SD       0.10E+00    8.0     0.00000280     -2872.4029364528  8.50E-06
    75 OT SD       0.10E+00    6.1     0.00000280     -2872.4029384331 -1.98E-06
    76 OT SD       0.10E+00    8.3     0.00000281     -2872.4029404161 -1.98E-06
    77 OT SD       0.10E+00    7.4     0.00000282     -2872.4029424022 -1.99E-06
    78 OT SD       0.10E+00    6.2     0.00000285     -2872.4029443899 -1.99E-06
    79 OT SD       0.10E+00    8.3     0.00000295     -2872.4029463677 -1.98E-06
    80 OT SD       0.10E+00    7.1     0.00000333     -2872.4029482823 -1.91E-06
    81 OT SD       0.10E+00    6.0     0.00000460     -2872.4029498951 -1.61E-06
    82 OT SD       0.10E+00    6.7     0.00000810     -2872.4029501358 -2.41E-07
    83 OT DIIS     0.10E+00    5.0     0.00001629     -2872.4029441445  5.99E-06
    84 OT SD       0.10E+00    5.6     0.00000279     -2872.4029421990  1.95E-06
    85 OT SD       0.10E+00    9.3     0.00000279     -2872.4029441654 -1.97E-06
    86 OT SD       0.10E+00    5.7     0.00000280     -2872.4029461341 -1.97E-06
    87 OT SD       0.10E+00    5.8     0.00000281     -2872.4029481052 -1.97E-06
    88 OT SD       0.10E+00    7.7     0.00000284     -2872.4029500762 -1.97E-06
    89 OT SD       0.10E+00    6.8     0.00000294     -2872.4029520350 -1.96E-06
    90 OT SD       0.10E+00    6.2     0.00000331     -2872.4029539269 -1.89E-06
    91 OT SD       0.10E+00    8.2     0.00000459     -2872.4029555129 -1.59E-06
    92 OT SD       0.10E+00    7.0     0.00000806     -2872.4029557342 -2.21E-07
    93 OT SD       0.10E+00    6.1     0.00001615     -2872.4029498307  5.90E-06
    94 OT DIIS     0.10E+00    8.1     0.00003393     -2872.4029161034  3.37E-05
    95 OT SD       0.10E+00    7.3     0.00000279     -2872.4029410428 -2.49E-05
    96 OT SD       0.10E+00    6.1     0.00000280     -2872.4029429973 -1.95E-06
    97 OT SD       0.10E+00    8.5     0.00000282     -2872.4029449518 -1.95E-06
    98 OT SD       0.10E+00   12.2     0.00000289     -2872.4029468991 -1.95E-06
    99 OT SD       0.10E+00    6.3     0.00000313     -2872.4029488080 -1.91E-06
   100 OT SD       0.10E+00    8.1     0.00000394     -2872.4029505477 -1.74E-06
   101 OT SD       0.10E+00    5.0     0.00000627     -2872.4029515575 -1.01E-06
   102 OT DIIS     0.10E+00    5.8     0.00001192     -2872.4029493702  2.19E-06
   103 OT SD       0.10E+00    8.1     0.00000277     -2872.4029444344  4.94E-06
   104 OT SD       0.10E+00    5.3     0.00000278     -2872.4029463753 -1.94E-06
   105 OT SD       0.10E+00    5.9     0.00000278     -2872.4029483178 -1.94E-06
   106 OT SD       0.10E+00    7.6     0.00000279     -2872.4029502613 -1.94E-06
   107 OT SD       0.10E+00    5.7     0.00000283     -2872.4029522019 -1.94E-06
   108 OT SD       0.10E+00    4.1     0.00000297     -2872.4029541216 -1.92E-06
   109 OT SD       0.10E+00    4.2     0.00000346     -2872.4029559477 -1.83E-06
   110 OT SD       0.10E+00    4.1     0.00000495     -2872.4029573864 -1.44E-06
   111 OT SD       0.10E+00    4.1     0.00000867     -2872.4029572420  1.44E-07
   112 OT DIIS     0.10E+00    5.7     0.00001681     -2872.4029505948  6.65E-06
   113 OT SD       0.10E+00    8.5     0.00000277     -2872.4029432472  7.35E-06
   114 OT SD       0.10E+00    9.1     0.00000277     -2872.4029451780 -1.93E-06
   115 OT SD       0.10E+00    6.5     0.00000277     -2872.4029471108 -1.93E-06
   116 OT SD       0.10E+00    8.1     0.00000278     -2872.4029490458 -1.94E-06
   117 OT SD       0.10E+00    7.2     0.00000281     -2872.4029509813 -1.94E-06
   118 OT SD       0.10E+00    6.3     0.00000289     -2872.4029529074 -1.93E-06
   119 OT SD       0.10E+00    8.6     0.00000322     -2872.4029547792 -1.87E-06
   120 OT SD       0.10E+00   10.6     0.00000433     -2872.4029563997 -1.62E-06

  Leaving inner SCF loop after reaching   120 steps.


  Electronic density on regular grids:      -1056.0000000022       -0.0000000022
  Core density on regular grids:             1055.9999999995       -0.0000000005
  Total charge density on r-space grids:       -0.0000000026
  Total charge density g-space grids:          -0.0000000026

  Overlap energy of the core charge distribution:               0.00001072146892
  Self energy of the core charge distribution:              -6954.02004235612549
  Core Hamiltonian energy:                                   1868.74951251538391
  Hartree energy:                                            2783.08088293787114
  Exchange-correlation energy:                               -568.72515726653603
  Dispersion energy:                                           -1.48816295173906

  Total energy:                                             -2872.40295639967644

  outer SCF iter =    5 RMS gradient =   0.43E-05 energy =      -2872.4029563997

  ----------------------------------- OT ---------------------------------------
  Minimizer      : DIIS                : direct inversion
                                         in the iterative subspace
                                         using   7 DIIS vectors
                                         safer DIIS on
  Preconditioner : FULL_SINGLE_INVERSE : inversion of 
                                         H + eS - 2*(Sc)(c^T*H*c+const)(Sc)^T
  Precond_solver : INVERSE_UPDATE
  stepsize       :    0.10000000                  energy_gap     :    0.10000000
  eps_taylor     :   0.10000E-15                  max_taylor     :             4
  ----------------------------------- OT ---------------------------------------

  Step     Update method      Time    Convergence         Total energy    Change
  ------------------------------------------------------------------------------


     Lanczos converged:  T threshold:   0.100E-02
     Est. extremal eigenvalues:    0.108E+01   0.689E+00
     Est. condition number :    0.157E+01
     Hotelling iter   1 1.00000000   0.676E-01       0.314   172885.390



     Lanczos converged:  T threshold:   0.100E-02
     Est. extremal eigenvalues:    0.108E+01   0.690E+00
     Est. condition number :    0.157E+01
     Hotelling iter   1 1.00000000   0.674E-01       0.404   134134.632

     1 OT DIIS     0.10E+00   19.3     0.00000758     -2872.4029568991 -4.99E-07
     2 OT DIIS     0.10E+00    6.2     0.00001580     -2872.4029516153  5.28E-06
     3 OT DIIS     0.10E+00    5.3     0.00000309     -2872.4029616534 -1.00E-05
     4 OT SD       0.10E+00    5.7     0.00000296     -2872.4029623595 -7.06E-07
     5 OT SD       0.10E+00    7.4     0.00000298     -2872.4029645754 -2.22E-06
     6 OT SD       0.10E+00    5.0     0.00000301     -2872.4029668196 -2.24E-06
     7 OT SD       0.10E+00    5.6     0.00000308     -2872.4029690962 -2.28E-06
     8 OT SD       0.10E+00    9.1     0.00000326     -2872.4029713935 -2.30E-06
     9 OT SD       0.10E+00   12.9     0.00000396     -2872.4029736102 -2.22E-06
    10 OT SD       0.10E+00    6.2     0.00000637     -2872.4029751562 -1.55E-06
    11 OT SD       0.10E+00    7.9     0.00001313     -2872.4029727725  2.38E-06
    12 OT DIIS     0.10E+00   10.3     0.00002981     -2872.4029485111  2.43E-05
    13 OT DIIS     0.10E+00    6.1     0.00000289     -2872.4029406892  7.82E-06
    14 OT SD       0.10E+00    8.8     0.00000290     -2872.4029407810 -9.18E-08
    15 OT SD       0.10E+00    8.2     0.00000292     -2872.4029428820 -2.10E-06
    16 OT DIIS     0.10E+00    6.6     0.00000299     -2872.4029449706 -2.09E-06
    17 OT DIIS     0.10E+00    7.7     0.00000289     -2872.4029467639 -1.79E-06
    18 OT DIIS     0.10E+00    8.5     0.00000289     -2872.4029595763 -1.28E-05
    19 OT DIIS     0.10E+00    6.6     0.00000289     -2872.4029625958 -3.02E-06
    20 OT DIIS     0.10E+00    7.1     0.00000289     -2872.4029634580 -8.62E-07
    21 OT SD       0.10E+00    4.8     0.00000289     -2872.4029644271 -9.69E-07
    22 OT SD       0.10E+00    5.9     0.00000289     -2872.4029665267 -2.10E-06
    23 OT SD       0.10E+00    7.8     0.00000290     -2872.4029686290 -2.10E-06
    24 OT SD       0.10E+00    5.6     0.00000294     -2872.4029707295 -2.10E-06
    25 OT SD       0.10E+00    5.8     0.00000313     -2872.4029728018 -2.07E-06
    26 OT SD       0.10E+00    7.3     0.00000395     -2872.4029747042 -1.90E-06
    27 OT SD       0.10E+00    6.8     0.00000679     -2872.4029756737 -9.69E-07
    28 OT SD       0.10E+00    5.9     0.00001453     -2872.4029715687  4.10E-06
    29 OT DIIS     0.10E+00    8.1     0.00003336     -2872.4029397021  3.19E-05
    30 OT SD       0.10E+00    9.8     0.00000288     -2872.4029556776 -1.60E-05
    31 OT SD       0.10E+00    6.2     0.00000288     -2872.4029577598 -2.08E-06
    32 OT SD       0.10E+00    8.0     0.00000289     -2872.4029598420 -2.08E-06
    33 OT SD       0.10E+00    7.8     0.00000294     -2872.4029619189 -2.08E-06
    34 OT SD       0.10E+00    6.2     0.00000313     -2872.4029639665 -2.05E-06
    35 OT SD       0.10E+00    7.9     0.00000376     -2872.4029658851 -1.92E-06
    36 OT SD       0.10E+00    8.0     0.00000563     -2872.4029672611 -1.38E-06
    37 OT SD       0.10E+00    6.2     0.00001022     -2872.4029663629  8.98E-07
    38 OT DIIS     0.10E+00    8.5     0.00002031     -2872.4029558279  1.05E-05
    39 OT SD       0.10E+00    8.1     0.00000287     -2872.4029629752 -7.15E-06
    40 OT SD       0.10E+00    6.1     0.00000287     -2872.4029650476 -2.07E-06
    41 OT SD       0.10E+00    7.2     0.00000288     -2872.4029671202 -2.07E-06
    42 OT SD       0.10E+00    4.9     0.00000293     -2872.4029691875 -2.07E-06
    43 OT SD       0.10E+00    6.0     0.00000313     -2872.4029712203 -2.03E-06
    44 OT SD       0.10E+00    7.8     0.00000401     -2872.4029730659 -1.85E-06
    45 OT SD       0.10E+00    5.3     0.00000698     -2872.4029739107 -8.45E-07
    46 OT DIIS     0.10E+00    5.8     0.00001500     -2872.4029693360  4.57E-06
    47 OT SD       0.10E+00    6.6     0.00000286     -2872.4029616255  7.71E-06
    48 OT SD       0.10E+00    6.5     0.00000286     -2872.4029636877 -2.06E-06
    49 OT SD       0.10E+00    5.9     0.00000288     -2872.4029657499 -2.06E-06
    50 OT SD       0.10E+00    8.8     0.00000293     -2872.4029678058 -2.06E-06
    51 OT SD       0.10E+00    6.8     0.00000314     -2872.4029698269 -2.02E-06
    52 OT SD       0.10E+00    4.2     0.00000390     -2872.4029716864 -1.86E-06
    53 OT SD       0.10E+00    4.1     0.00000621     -2872.4029728196 -1.13E-06
    54 OT DIIS     0.10E+00    4.1     0.00001197     -2872.4029706853  2.13E-06
    55 OT SD       0.10E+00    4.1     0.00000285     -2872.4029711820 -4.97E-07
    56 OT SD       0.10E+00    6.1     0.00000286     -2872.4029732356 -2.05E-06
    57 OT SD       0.10E+00    7.3     0.00000286     -2872.4029752905 -2.05E-06
    58 OT SD       0.10E+00    9.0     0.00000288     -2872.4029773449 -2.05E-06
    59 OT SD       0.10E+00    6.5     0.00000296     -2872.4029793888 -2.04E-06
    60 OT SD       0.10E+00    7.9     0.00000330     -2872.4029813709 -1.98E-06
    61 OT SD       0.10E+00    5.3     0.00000462     -2872.4029830359 -1.66E-06
    62 OT SD       0.10E+00    5.9     0.00000859     -2872.4029830813 -4.53E-08
    63 OT DIIS     0.10E+00    8.1     0.00001861     -2872.4029747227  8.36E-06
    64 OT SD       0.10E+00    5.5     0.00000285     -2872.4029690515  5.67E-06
    65 OT SD       0.10E+00    5.8     0.00000285     -2872.4029710961 -2.04E-06
    66 OT SD       0.10E+00    8.6     0.00000286     -2872.4029731417 -2.05E-06
    67 OT SD       0.10E+00    7.6     0.00000288     -2872.4029751858 -2.04E-06
    68 OT SD       0.10E+00    6.4     0.00000299     -2872.4029772149 -2.03E-06
    69 OT SD       0.10E+00    8.0     0.00000344     -2872.4029791589 -1.94E-06
    70 OT SD       0.10E+00   11.0     0.00000518     -2872.4029806477 -1.49E-06
    71 OT SD       0.10E+00    6.2     0.00001033     -2872.4029796915  9.56E-07
    72 OT DIIS     0.10E+00    8.5     0.00002325     -2872.4029654017  1.43E-05
    73 OT SD       0.10E+00    7.9     0.00000284     -2872.4029750757 -9.67E-06
    74 OT SD       0.10E+00    6.2     0.00000284     -2872.4029771125 -2.04E-06
    75 OT SD       0.10E+00    7.8     0.00000285     -2872.4029791501 -2.04E-06
    76 OT SD       0.10E+00    8.7     0.00000286     -2872.4029811874 -2.04E-06
    77 OT SD       0.10E+00    6.3     0.00000292     -2872.4029832178 -2.03E-06
    78 OT SD       0.10E+00    7.8     0.00000315     -2872.4029852084 -1.99E-06
    79 OT SD       0.10E+00    7.5     0.00000410     -2872.4029869907 -1.78E-06
    80 OT SD       0.10E+00    6.2     0.00000725     -2872.4029876779 -6.87E-07
    81 OT DIIS     0.10E+00    8.1     0.00001561     -2872.4029824875  5.19E-06
    82 OT SD       0.10E+00    4.7     0.00000284     -2872.4029758694  6.62E-06
[...]
    49 OT SD       0.10E+00    5.5     0.00000166     -2872.4038518329 -7.94E-06
    50 OT DIIS     0.10E+00    9.4     0.00000166     -2872.4038525234 -6.90E-07
    51 OT SD       0.10E+00    6.4     0.00000166     -2872.4038548445 -2.32E-06
    52 OT SD       0.10E+00    8.7     0.00000167     -2872.4038555362 -6.92E-07
    53 OT SD       0.10E+00    5.1     0.00000169     -2872.4038562267 -6.91E-07
    54 OT SD       0.10E+00    5.9     0.00000180     -2872.4038569075 -6.81E-07
    55 OT SD       0.10E+00    8.1     0.00000225     -2872.4038575334 -6.26E-07
    56 OT SD       0.10E+00    5.7     0.00000380     -2872.4038578725 -3.39E-07
    57 OT SD       0.10E+00    6.0     0.00000790     -2872.4038567269  1.15E-06
    58 OT DIIS     0.10E+00    5.9     0.00001763     -2872.4038478799  8.85E-06
    59 OT SD       0.10E+00    5.5     0.00000165     -2872.4038516308 -3.75E-06
    60 OT SD       0.10E+00    6.3     0.00000165     -2872.4038523181 -6.87E-07
    61 OT SD       0.10E+00    5.3     0.00000165     -2872.4038530054 -6.87E-07
    62 OT SD       0.10E+00    5.9     0.00000166     -2872.4038536924 -6.87E-07
    63 OT SD       0.10E+00    8.4     0.00000168     -2872.4038543775 -6.85E-07
    64 OT SD       0.10E+00    5.8     0.00000179     -2872.4038550522 -6.75E-07
    65 OT SD       0.10E+00    6.0     0.00000219     -2872.4038556784 -6.26E-07
    66 OT SD       0.10E+00    6.0     0.00000347     -2872.4038560784 -4.00E-07
    67 OT SD       0.10E+00    5.5     0.00000681     -2872.4038554100  6.68E-07
    68 OT DIIS     0.10E+00    6.4     0.00001454     -2872.4038496061  5.80E-06
    69 OT SD       0.10E+00    7.2     0.00000165     -2872.4038531001 -3.49E-06
    70 OT SD       0.10E+00    5.7     0.00000165     -2872.4038537850 -6.85E-07
    71 OT SD       0.10E+00    5.6     0.00000165     -2872.4038544704 -6.85E-07
    72 OT SD       0.10E+00    6.5     0.00000166     -2872.4038551557 -6.85E-07
    73 OT SD       0.10E+00    6.1     0.00000171     -2872.4038558373 -6.82E-07
    74 OT SD       0.10E+00    8.9     0.00000192     -2872.4038564970 -6.60E-07
    75 OT SD       0.10E+00    5.2     0.00000274     -2872.4038570411 -5.44E-07
    76 OT SD       0.10E+00    5.7     0.00000516     -2872.4038569931  4.80E-08
    77 OT DIIS     0.10E+00    7.6     0.00001116     -2872.4038539072  3.09E-06
    78 OT SD       0.10E+00    5.7     0.00000164     -2872.4038517895  2.12E-06
    79 OT SD       0.10E+00    5.9     0.00000165     -2872.4038524715 -6.82E-07
    80 OT SD       0.10E+00    5.7     0.00000165     -2872.4038531536 -6.82E-07
    81 OT SD       0.10E+00    6.0     0.00000165     -2872.4038538356 -6.82E-07
    82 OT SD       0.10E+00    9.3     0.00000168     -2872.4038545158 -6.80E-07
    83 OT SD       0.10E+00    5.3     0.00000177     -2872.4038551866 -6.71E-07
    84 OT SD       0.10E+00    5.6     0.00000214     -2872.4038558129 -6.26E-07
    85 OT SD       0.10E+00    7.4     0.00000335     -2872.4038562334 -4.20E-07
    86 OT SD       0.10E+00    5.6     0.00000650     -2872.4038556873  5.46E-07
    87 OT DIIS     0.10E+00    7.0     0.00001381     -2872.4038505182  5.17E-06
    88 OT SD       0.10E+00    7.7     0.00000164     -2872.4038517639 -1.25E-06
    89 OT SD       0.10E+00    5.4     0.00000164     -2872.4038524440 -6.80E-07
    90 OT SD       0.10E+00    5.6     0.00000165     -2872.4038531243 -6.80E-07
    91 OT SD       0.10E+00    7.4     0.00000165     -2872.4038538044 -6.80E-07
    92 OT SD       0.10E+00    4.5     0.00000168     -2872.4038544823 -6.78E-07
    93 OT SD       0.10E+00    4.1     0.00000182     -2872.4038551457 -6.63E-07
    94 OT SD       0.10E+00    6.1     0.00000241     -2872.4038557333 -5.88E-07
    95 OT SD       0.10E+00    4.1     0.00000430     -2872.4038559284 -1.95E-07
    96 OT DIIS     0.10E+00    6.1     0.00000916     -2872.4038540952  1.83E-06
    97 OT SD       0.10E+00    8.8     0.00000164     -2872.4038519831  2.11E-06
    98 OT SD       0.10E+00    4.8     0.00000164     -2872.4038526610 -6.78E-07
    99 OT SD       0.10E+00    5.9     0.00000164     -2872.4038533390 -6.78E-07
   100 OT SD       0.10E+00    7.6     0.00000166     -2872.4038540163 -6.77E-07
   101 OT SD       0.10E+00    6.2     0.00000170     -2872.4038546894 -6.73E-07
   102 OT SD       0.10E+00    8.8     0.00000189     -2872.4038553430 -6.54E-07
   103 OT SD       0.10E+00    4.9     0.00000254     -2872.4038559064 -5.63E-07
   104 OT SD       0.10E+00    5.8     0.00000445     -2872.4038560556 -1.49E-07
   105 OT DIIS     0.10E+00    7.9     0.00000907     -2872.4038542576  1.80E-06
   106 OT SD       0.10E+00    5.4     0.00000164     -2872.4038515596  2.70E-06
   107 OT SD       0.10E+00    6.2     0.00000164     -2872.4038522357 -6.76E-07
   108 OT SD       0.10E+00    6.0     0.00000164     -2872.4038529120 -6.76E-07
   109 OT SD       0.10E+00    5.5     0.00000165     -2872.4038535882 -6.76E-07
   110 OT SD       0.10E+00    6.5     0.00000168     -2872.4038542621 -6.74E-07
   111 OT SD       0.10E+00    6.6     0.00000181     -2872.4038549231 -6.61E-07
   112 OT SD       0.10E+00    5.7     0.00000233     -2872.4038555184 -5.95E-07
   113 OT SD       0.10E+00    5.5     0.00000401     -2872.4038557848 -2.66E-07
   114 OT SD       0.10E+00    6.8     0.00000833     -2872.4038543935  1.39E-06
   115 OT DIIS     0.10E+00    6.1     0.00001846     -2872.4038445783  9.82E-06
   116 OT DIIS     0.10E+00   10.6     0.00000164     -2872.4038504048 -5.83E-06
   117 OT DIIS     0.10E+00    5.5     0.00000164     -2872.4038515568 -1.15E-06
   118 OT SD       0.10E+00    6.2     0.00000164     -2872.4038520270 -4.70E-07
   119 OT SD       0.10E+00    6.9     0.00000164     -2872.4038527015 -6.75E-07
   120 OT SD       0.10E+00    5.4     0.00000164     -2872.4038533758 -6.74E-07

  Leaving inner SCF loop after reaching   120 steps.


  Electronic density on regular grids:      -1056.0000000021       -0.0000000021
  Core density on regular grids:             1055.9999999995       -0.0000000005
  Total charge density on r-space grids:       -0.0000000025
  Total charge density g-space grids:          -0.0000000025

  Overlap energy of the core charge distribution:               0.00001072146892
  Self energy of the core charge distribution:              -6954.02004235612549
  Core Hamiltonian energy:                                   1868.74333880275458
  Hartree energy:                                            2783.08491670250987
  Exchange-correlation energy:                               -568.72391429468576
  Dispersion energy:                                           -1.48816295173906

  Total energy:                                             -2872.40385337581620

  outer SCF iter =   20 RMS gradient =   0.16E-05 energy =      -2872.4038533758

  ----------------------------------- OT ---------------------------------------
  Minimizer      : DIIS                : direct inversion
                                         in the iterative subspace
                                         using   7 DIIS vectors
                                         safer DIIS on
  Preconditioner : FULL_SINGLE_INVERSE : inversion of 
                                         H + eS - 2*(Sc)(c^T*H*c+const)(Sc)^T
  Precond_solver : INVERSE_UPDATE
  stepsize       :    0.10000000                  energy_gap     :    0.10000000
  eps_taylor     :   0.10000E-15                  max_taylor     :             4
  ----------------------------------- OT ---------------------------------------

  Step     Update method      Time    Convergence         Total energy    Change
  ------------------------------------------------------------------------------


     Lanczos converged:  T threshold:   0.100E-02
     Est. extremal eigenvalues:    0.101E+01   0.914E+00
     Est. condition number :    0.111E+01
     Hotelling iter   1 1.00000000   0.949E-02       1.265    41628.023



     Lanczos converged:  T threshold:   0.100E-02
     Est. extremal eigenvalues:    0.101E+01   0.915E+00
     Est. condition number :    0.110E+01
     Hotelling iter   1 1.00000000   0.943E-02       1.101    47700.916

     1 OT DIIS     0.10E+00   21.0     0.00000171     -2872.4038540477 -6.72E-07
     2 OT DIIS     0.10E+00    5.8     0.00000185     -2872.4038547354 -6.88E-07
     3 OT DIIS     0.10E+00    5.9     0.00000168     -2872.4038549732 -2.38E-07
     4 OT SD       0.10E+00    6.0     0.00000168     -2872.4038550460 -7.28E-08
     5 OT SD       0.10E+00    5.5     0.00000168     -2872.4038557542 -7.08E-07
     6 OT SD       0.10E+00    6.5     0.00000168     -2872.4038564631 -7.09E-07
     7 OT SD       0.10E+00    6.9     0.00000169     -2872.4038571723 -7.09E-07
     8 OT SD       0.10E+00    5.7     0.00000174     -2872.4038578780 -7.06E-07
     9 OT SD       0.10E+00    5.6     0.00000197     -2872.4038585602 -6.82E-07
    10 OT SD       0.10E+00    6.6     0.00000287     -2872.4038591102 -5.50E-07
    11 OT SD       0.10E+00    6.2     0.00000564     -2872.4038589376  1.73E-07
    12 OT DIIS     0.10E+00    8.3     0.00001270     -2872.4038547876  4.15E-06
    13 OT SD       0.10E+00    4.8     0.00000167     -2872.4038500023  4.79E-06
    14 OT SD       0.10E+00    5.7     0.00000167     -2872.4038507058 -7.04E-07
    15 OT SD       0.10E+00    8.6     0.00000167     -2872.4038514093 -7.03E-07
    16 OT SD       0.10E+00    5.9     0.00000169     -2872.4038521116 -7.02E-07
    17 OT SD       0.10E+00    6.0     0.00000175     -2872.4038528080 -6.96E-07
    18 OT SD       0.10E+00    5.8     0.00000203     -2872.4038534720 -6.64E-07
    19 OT SD       0.10E+00    5.3     0.00000313     -2872.4038539623 -4.90E-07
    20 OT DIIS     0.10E+00    6.4     0.00000636     -2872.4038535093  4.53E-07
    21 OT SD       0.10E+00    5.8     0.00000167     -2872.4038526853  8.24E-07
    22 OT SD       0.10E+00    5.8     0.00000167     -2872.4038533870 -7.02E-07
    23 OT SD       0.10E+00    9.5     0.00000168     -2872.4038540884 -7.01E-07
    24 OT SD       0.10E+00    5.2     0.00000171     -2872.4038547869 -6.99E-07
    25 OT SD       0.10E+00    5.6     0.00000188     -2872.4038554678 -6.81E-07
    26 OT SD       0.10E+00    7.3     0.00000260     -2872.4038560512 -5.83E-07
    27 OT SD       0.10E+00    5.2     0.00000491     -2872.4038561019 -5.08E-08
    28 OT DIIS     0.10E+00    5.4     0.00001093     -2872.4038532199  2.88E-06
    29 OT DIIS     0.10E+00    6.9     0.00000167     -2872.4038498590  3.36E-06
    30 OT DIIS     0.10E+00    4.7     0.00000167     -2872.4038510113 -1.15E-06
    31 OT SD       0.10E+00    4.2     0.00000167     -2872.4038511794 -1.68E-07
    32 OT SD       0.10E+00    4.1     0.00000167     -2872.4038518791 -7.00E-07
    33 OT SD       0.10E+00    4.2     0.00000168     -2872.4038525782 -6.99E-07
    34 OT SD       0.10E+00    5.0     0.00000173     -2872.4038532728 -6.95E-07
    35 OT SD       0.10E+00    6.1     0.00000196     -2872.4038539420 -6.69E-07
    36 OT SD       0.10E+00    5.6     0.00000291     -2872.4038544693 -5.27E-07
    37 OT SD       0.10E+00    5.5     0.00000584     -2872.4038542080  2.61E-07
    38 OT DIIS     0.10E+00    6.4     0.00001333     -2872.4038495371  4.67E-06
    39 OT DIIS     0.10E+00    6.7     0.00000166     -2872.4038501152 -5.78E-07
    40 OT DIIS     0.10E+00    5.7     0.00000166     -2872.4038502967 -1.81E-07
    41 OT SD       0.10E+00    9.4     0.00000166     -2872.4038509657 -6.69E-07
    42 OT SD       0.10E+00    5.2     0.00000166     -2872.4038516644 -6.99E-07
    43 OT SD       0.10E+00    5.5     0.00000167     -2872.4038523634 -6.99E-07
    44 OT SD       0.10E+00    8.0     0.00000167     -2872.4038530626 -6.99E-07
    45 OT SD       0.10E+00    5.8     0.00000167     -2872.4038537617 -6.99E-07
    46 OT SD       0.10E+00    5.9     0.00000170     -2872.4038544584 -6.97E-07
    47 OT SD       0.10E+00    5.9     0.00000185     -2872.4038551394 -6.81E-07
    48 OT SD       0.10E+00    5.4     0.00000252     -2872.4038557313 -5.92E-07
    49 OT SD       0.10E+00    6.4     0.00000475     -2872.4038558259 -9.46E-08
    50 OT DIIS     0.10E+00    7.6     0.00001064     -2872.4038531376  2.69E-06
    51 OT SD       0.10E+00    5.8     0.00000166     -2872.4038499885  3.15E-06
    52 OT DIIS     0.10E+00    5.5     0.00000166     -2872.4038506857 -6.97E-07
    53 OT SD       0.10E+00    6.2     0.00000166     -2872.4038516986 -1.01E-06
    54 OT SD       0.10E+00    6.0     0.00000166     -2872.4038523962 -6.98E-07
    55 OT SD       0.10E+00    8.0     0.00000167     -2872.4038530938 -6.98E-07
    56 OT SD       0.10E+00    4.5     0.00000168     -2872.4038537903 -6.96E-07
    57 OT SD       0.10E+00    5.9     0.00000176     -2872.4038544796 -6.89E-07
    58 OT SD       0.10E+00    9.1     0.00000210     -2872.4038551289 -6.49E-07
    59 OT SD       0.10E+00    5.7     0.00000339     -2872.4038555620 -4.33E-07
    60 OT SD       0.10E+00    5.9     0.00000706     -2872.4038548139  7.48E-07
    61 OT DIIS     0.10E+00    8.6     0.00001617     -2872.4038475548  7.26E-06
    62 OT SD       0.10E+00    6.1     0.00000166     -2872.4038486411 -1.09E-06
    63 OT SD       0.10E+00    8.3     0.00000166     -2872.4038493372 -6.96E-07
    64 OT SD       0.10E+00    4.8     0.00000166     -2872.4038500333 -6.96E-07
    65 OT SD       0.10E+00    5.9     0.00000167     -2872.4038507287 -6.95E-07
    66 OT SD       0.10E+00    8.0     0.00000170     -2872.4038514212 -6.92E-07
    67 OT SD       0.10E+00    5.6     0.00000185     -2872.4038520975 -6.76E-07
    68 OT SD       0.10E+00    6.0     0.00000251     -2872.4038526863 -5.89E-07
    69 OT DIIS     0.10E+00    5.7     0.00000468     -2872.4038527948 -1.08E-07
    70 OT DIIS     0.10E+00    5.3     0.00000166     -2872.4038521085  6.86E-07
    71 OT SD       0.10E+00    5.6     0.00000166     -2872.4038522947 -1.86E-07
    72 OT SD       0.10E+00    5.9     0.00000166     -2872.4038529896 -6.95E-07
    73 OT SD       0.10E+00    5.5     0.00000166     -2872.4038536850 -6.95E-07
    74 OT SD       0.10E+00    6.3     0.00000167     -2872.4038543806 -6.96E-07
    75 OT SD       0.10E+00    6.6     0.00000168     -2872.4038550754 -6.95E-07
    76 OT SD       0.10E+00    5.7     0.00000177     -2872.4038557623 -6.87E-07
    77 OT SD       0.10E+00    5.5     0.00000215     -2872.4038564042 -6.42E-07
    78 OT SD       0.10E+00    7.3     0.00000358     -2872.4038567959 -3.92E-07
    79 OT SD       0.10E+00    6.0     0.00000761     -2872.4038558011  9.95E-07
    80 OT DIIS     0.10E+00    7.4     0.00001759     -2872.4038470814  8.72E-06
    81 OT DIIS     0.10E+00    5.4     0.00000166     -2872.4038467440  3.37E-07
    82 OT SD       0.10E+00    6.0     0.00000166     -2872.4038474299 -6.86E-07
    83 OT DIIS     0.10E+00    7.7     0.00000166     -2872.4038481226 -6.93E-07
    84 OT DIIS     0.10E+00    5.2     0.00000166     -2872.4038482059 -8.33E-08
    85 OT DIIS     0.10E+00    6.2     0.00000166     -2872.4038494853 -1.28E-06
    86 OT SD       0.10E+00    7.1     0.00000166     -2872.4038498006 -3.15E-07
    87 OT SD       0.10E+00    5.3     0.00000166     -2872.4038504934 -6.93E-07
    88 OT SD       0.10E+00    5.7     0.00000166     -2872.4038511862 -6.93E-07
    89 OT SD       0.10E+00    7.3     0.00000166     -2872.4038518788 -6.93E-07
    90 OT SD       0.10E+00    7.6     0.00000168     -2872.4038525701 -6.91E-07
    91 OT SD       0.10E+00    4.2     0.00000176     -2872.4038532532 -6.83E-07
    92 OT SD       0.10E+00    6.1     0.00000213     -2872.4038538922 -6.39E-07
    93 OT SD       0.10E+00    4.1     0.00000350     -2872.4038542934 -4.01E-07
    94 OT SD       0.10E+00    6.2     0.00000737     -2872.4038534012  8.92E-07
    95 OT DIIS     0.10E+00    8.4     0.00001690     -2872.4038453983  8.00E-06
    96 OT SD       0.10E+00    4.8     0.00000166     -2872.4038510109 -5.61E-06
    97 OT SD       0.10E+00    5.8     0.00000166     -2872.4038517029 -6.92E-07
    98 OT SD       0.10E+00    8.2     0.00000166     -2872.4038523949 -6.92E-07
    99 OT SD       0.10E+00    5.5     0.00000168     -2872.4038530855 -6.91E-07
   100 OT SD       0.10E+00    6.4     0.00000177     -2872.4038537667 -6.81E-07
   101 OT SD       0.10E+00    8.0     0.00000222     -2872.4038543932 -6.27E-07
   102 OT SD       0.10E+00    6.2     0.00000389     -2872.4038547084 -3.15E-07
   103 OT SD       0.10E+00    8.7     0.00000852     -2872.4038532585  1.45E-06
   104 OT DIIS     0.10E+00    4.8     0.00001997     -2872.4038417929  1.15E-05
   105 OT SD       0.10E+00    5.9     0.00000166     -2872.4038489282 -7.14E-06
   106 OT DIIS     0.10E+00    7.7     0.00000166     -2872.4038496190 -6.91E-07
   107 OT SD       0.10E+00    5.8     0.00000166     -2872.4038502692 -6.50E-07
   108 OT SD       0.10E+00    5.9     0.00000166     -2872.4038509597 -6.91E-07
   109 OT SD       0.10E+00    5.7     0.00000168     -2872.4038516487 -6.89E-07
   110 OT SD       0.10E+00    5.3     0.00000176     -2872.4038523294 -6.81E-07
   111 OT SD       0.10E+00    6.5     0.00000214     -2872.4038529650 -6.36E-07
   112 OT SD       0.10E+00    6.3     0.00000357     -2872.4038533502 -3.85E-07
   113 OT SD       0.10E+00    5.3     0.00000764     -2872.4038523335  1.02E-06
   114 OT DIIS     0.10E+00    6.6     0.00001778     -2872.4038434092  8.92E-06
   115 OT SD       0.10E+00    7.0     0.00000166     -2872.4038467971 -3.39E-06
   116 OT SD       0.10E+00    5.7     0.00000166     -2872.4038474873 -6.90E-07
   117 OT DIIS     0.10E+00    5.6     0.00000166     -2872.4038481768 -6.90E-07
   118 OT SD       0.10E+00    6.2     0.00000165     -2872.4038488814 -7.05E-07
   119 OT DIIS     0.10E+00    5.8     0.00000166     -2872.4038495711 -6.90E-07
   120 OT SD       0.10E+00    8.9     0.00000165     -2872.4038505430 -9.72E-07

  Leaving inner SCF loop after reaching   120 steps.


  Electronic density on regular grids:      -1056.0000000021       -0.0000000021
  Core density on regular grids:             1055.9999999995       -0.0000000005
  Total charge density on r-space grids:       -0.0000000026
  Total charge density g-space grids:          -0.0000000026

  Overlap energy of the core charge distribution:               0.00001072146892
  Self energy of the core charge distribution:              -6954.02004235612549
  Core Hamiltonian energy:                                   1868.74335582066897
  Hartree energy:                                            2783.08491051382362
  Exchange-correlation energy:                               -568.72392229109596
  Dispersion energy:                                           -1.48816295173906

  Total energy:                                             -2872.40385054299941

  outer SCF iter =   21 RMS gradient =   0.17E-05 energy =      -2872.4038505430
  outer SCF loop FAILED to converge after   21 iterations or 2520 steps


 *******************************************************************************
 *   ___                                                                       *
 *  /   \                                                                      *
 * [ABORT]                                                                     *
 *  \___/     SCF run NOT converged. To continue the calculation regardless,   *
 *    |             please set the keyword IGNORE_CONVERGENCE_FAILURE.         *
 *  O/|                                                                        *
 * /| |                                                                        *
 * / \                                                            qs_scf.F:642 *
 *******************************************************************************


 ===== Routine Calling Stack ===== 

            7 scf_env_do_scf
            6 qs_energies
            5 qs_forces
            4 cp_eval_at
            3 geoopt_bfgs
            2 cp_geo_opt
            1 CP2K
