     180
 i =        1, E =     -2872.9177267710
 Ca         0.0252399978        1.5528666485        5.6586536151
 Ca         4.2711757054        5.0246841214        5.1104760371
 Ca         8.5604492675        0.2811818351        2.4171152132
 Ca        10.7196779402        5.0963023094        5.1379917783
 Ca         2.2633178025        0.2215486237        2.4465360742
 Ca         6.5446224061        1.5334776241        5.5599472881
  S         3.1890945355        1.6013213398        6.0790217400
  S         7.5173964260        4.9591769682        5.1861270044
  S        11.7563414747        0.4160284424        2.4532298396
  O         4.0681111773        0.3354332221        5.9387440059
  O         8.2948460604        5.4913182517        4.0281786341
  O        12.5542082842        1.1212470822        3.5136347824
  O         2.2960887046        1.4074669429        4.8548305682
  O         6.4922232518        5.9631281924        5.6119176726
  O        10.7449839826        6.4935954440        3.1567234466
  O         2.5915922777        5.2796200739        1.1289005077
  O         6.7861339895        3.7268301019        4.7689143935
  O        11.0491345524        1.4152602354        1.6118464449
  O         4.1916686265        2.6282882347        5.5042769151
  O         8.4486075051        4.6789074673        6.3002918410
  O        12.7052706961        6.5141994138        1.6755667633
  S         1.1620375675        4.9867471169        5.2406055448
  S         5.3871254779        0.3504826510        2.4481583782
  S         9.5994051855        1.6264425630        5.9767891487
  O         0.3505809282        3.7836049714        4.9175078623
  O         4.5851245012        1.2639355606        1.6042913208
  O         8.8042586088        5.3609562389        1.0420535465
  O         2.0647489769        5.3801318118        4.1271159286
  O         6.2994915366        1.0909936788        3.3717399654
  O        10.5653440373        0.4601922984        5.9814751786
  O         0.1492725791        6.0690145400        5.4943540418
  O         4.4099132372        6.5041926416        3.3002852414
  O         8.6982474691        1.2775660088        4.7966122133
  O         2.0300126452        4.7305703146        6.4295394981
  O         6.2934260627        6.3898734399        1.6692592193
  O        10.5474457649        2.6919214076        5.4454276602
  O         2.5394430377        2.7233382180        2.6289987467
  O         6.8064192294        3.7135252338        1.7560931913
  O        11.0499788501        3.9620640113        3.0963072329
  H         3.4407261263        2.5625859006        3.0550361747
  H         7.7068005729        3.4356351248        1.3909788292
  H        11.9321342943        4.4195334319        2.9332445283
  H         2.7318661690        3.3598213709        1.8623317238
  H         7.0054263901        4.0455825683        2.6850403445
  H        11.2471836024        2.9975791194        2.8964104822
 Ca         0.0244403601        8.4799964714        5.6585704102
 Ca         4.2711089587       11.9514456744        5.1103709593
 Ca         8.5620549672        7.2065236063        2.4162358819
 Ca        10.7197035126       12.0223814909        5.1386509101
 Ca         2.2644849589        7.1490018318        2.4461287335
 Ca         6.5451139288        8.4602421240        5.5600414202
  S         3.1890453546        8.5280327916        6.0789995156
  S         7.5174058131       11.8859902033        5.1860681888
  S        11.7559226485        7.3420090095        2.4537315991
  O         4.0683239371        7.2622215238        5.9384415777
  O         8.2949412292       12.4183157082        4.0281727494
  O        12.5534869478        8.0487772950        3.5132257104
  O         2.2959679807        8.3344268657        4.8548942198
  O         6.4922838231       12.8899486415        5.6119614528
  O        10.7452804286       13.4207602631        3.1557384788
  O         2.5910620293       12.2065294477        1.1281131450
  O         6.7861371444       10.6536527076        4.7689341161
  O        11.0493934623        8.3421475881        1.6122540554
  O         4.1916112500        9.5550343696        5.5043870945
  O         8.4486672767       11.6057719560        6.3002090916
  O        12.7053177058       13.4406691531        1.6755391656
  S         1.1620306270       11.9136053557        5.2406335944
  S         5.3866506300        7.2775207873        2.4474527508
  S         9.5992577727        8.5533871451        5.9772521999
  O         0.3506148791       10.7105065386        4.9176436828
  O         4.5847615250        8.1917045483        1.6046617692
  O         8.8044456717       12.2862980264        1.0415445162
  O         2.0646941304       12.3071119995        4.1271367015
  O         6.2990733595        8.0174183580        3.3715534546
  O        10.5654000736        7.3871946334        5.9815640624
  O         0.1494695887       12.9961432830        5.4943076455
  O         4.4104044162       13.4310212563        3.3008052715
  O         8.6983153150        8.2043850701        4.7968780536
  O         2.0302314308       11.6576027369        6.4294423876
  O         6.2939082798       13.3168323990        1.6693517152
  O        10.5475898181        9.6185107776        5.4452829848
  O         2.5394076278        9.6500457945        2.6292209754
  O         6.8059808016       10.6397207067        1.7561292782
  O        11.0499345026       10.8893845414        3.0960489178
  H         3.4407885434        9.4891300630        3.0548948534
  H         7.7067078044       10.3627508754        1.3911477138
  H        11.9324020499       11.3461383143        2.9333436752
  H         2.7317127123       10.2863901489        1.8624932070
  H         7.0055402833       10.9723396090        2.6847440490
  H        11.2469535411        9.9246659549        2.8965120451
 Ca        12.7812753650        1.5530006714        5.6589422072
 Ca        17.0277077803        5.0237770372        5.1102155094
 Ca        21.3191755162        0.2811678454        2.4165770575
 Ca        23.4761018157        5.0971308579        5.1384866626
 Ca        15.0208999732        0.2216724439        2.4478614469
 Ca        19.3005786205        1.5335206777        5.5598181049
  S        15.9456219262        1.6011124605        6.0780819420
  S        20.2738700911        4.9591569233        5.1861114013
  S        24.5112614883        0.4152992959        2.4531709408
  O        16.8247703990        0.3355455813        5.9399793744
  O        21.0514743796        5.4912076761        4.0282261923
  O        25.3094078919        1.1213764509        3.5129032056
  O        15.0520553003        1.4077545982        4.8544064834
  O        19.2485674870        5.9629163983        5.6120911525
  O        23.5019656595        6.4931356979        3.1561684520
  O        15.3481712226        5.2797463534        1.1275934004
  O        19.5425995959        3.7267302681        4.7692707053
  O        23.8070206262        1.4173280318        1.6122806072
  O        16.9483053790        2.6282011442        5.5046131382
  O        21.2050965483        4.6788273504        6.3002682304
  O        25.4620592928        6.5139766838        1.6760787624
  S        13.9185457304        4.9868403081        5.2405216351
  S        18.1434071160        0.3498717690        2.4478848062
  S        22.3565033333        1.6263787936        5.9757421516
  O        13.1073653398        3.7834703132        4.9178834076
  O        17.3417826616        1.2641590059        1.6045045905
  O        21.5609566388        5.3611600387        1.0416817036
  O        14.8213721481        5.3804330251        4.1271608148
  O        19.0551922739        1.0913910121        3.3714035973
  O        23.3219247793        0.4600876294        5.9821871664
  O        12.9059587646        6.0692829528        5.4943871537
  O        17.1658608232        6.5051144395        3.3005940799
  O        21.4542458315        1.2773705591        4.7969478105
  O        14.7867206064        4.7306332760        6.4293041986
  O        19.0493394911        6.3900085378        1.6687025856
  O        23.3039229923        2.6926193490        5.4453735768
  O        15.2954015836        2.7235704153        2.6298549701
  O        19.5622052101        3.7128909026        1.7563323171
  O        23.8065778565        3.9621058274        3.0966240485
  H        16.1970718104        2.5623944866        3.0548251511
  H        20.4628250288        3.4357914373        1.3909827937
  H        24.6888841220        4.4194832557        2.9337740930
  H        15.4881394613        3.3598188986        1.8632315683
  H        19.7619338568        4.0454156296        2.6848469699
  H        24.0036856906        2.9978205489        2.8962833544
 Ca        12.7798540125        8.4798002328        5.6587250382
 Ca        17.0277789804       11.9524579899        5.1099017356
 Ca        21.3180777906        7.2069195595        2.4163205568
 Ca        23.4766584946       12.0217792454        5.1373557658
 Ca        15.0199369007        7.1480322569        2.4468145520
 Ca        19.3020652994        8.4602346719        5.5599392641
  S        15.9461860748        8.5277967602        6.0774047069
  S        20.2738611219       11.8859722661        5.1860689970
  S        24.5125075518        7.3421750772        2.4537204114
  O        16.8247861680        7.2619713262        5.9383018876
  O        21.0512351073       12.4180997046        4.0280413505
  O        25.3099210220        8.0487246313        3.5134783478
  O        15.0521267317        8.3347741805        4.8544850451
  O        19.2487017852       12.8899972565        5.6118390822
  O        23.4999592980       13.4214530109        3.1573384382
  O        15.3467039480       12.2068414033        1.1270232904
  O        19.5424595509       10.6536758325        4.7688376291
  O        23.8054166651        8.3415577475        1.6119512860
  O        16.9481409862        9.5555346247        5.5050099689
  O        21.2050212887       11.6058184172        6.3002982351
  O        25.4605241943       13.4404464690        1.6753582222
  S        13.9185042544       11.9136786401        5.2406332976
  S        18.1439397303        7.2775921821        2.4486593635
  S        22.3555949304        8.5530409891        5.9769542537
  O        13.1074765373       10.7102078665        4.9178937741
  O        17.3420432496        8.1913154972        1.6049012319
  O        21.5631191745       12.2856647916        1.0406280477
  O        14.8212826497       12.3070871538        4.1272219240
  O        19.0566026558        8.0164238718        3.3730068264
  O        23.3220601916        7.3871930801        5.9816791880
  O        12.9056824165       12.9958969356        5.4943719914
  O        17.1666906543       13.4308773628        3.3007757710
  O        21.4544619751        8.2047371623        4.7964463387
  O        14.7866543746       11.6572490164        6.4293845827
  O        19.0498148563       13.3152961730        1.6701529680
  O        23.3039788764        9.6184289078        5.4461949971
  O        15.2964012227        9.6496810764        2.6288366845
  O        19.5627552642       10.6424704747        1.7554891764
  O        23.8064947393       10.8888665580        3.0951780347
  H        16.1975352160        9.4894514062        3.0550960477
  H        20.4627599220       10.3626524371        1.3910687562
  H        24.6887885567       11.3461611490        2.9332615306
  H        15.4881622504       10.2868996933        1.8626469260
  H        19.7616954614       10.9723529585        2.6851404765
  H        24.0045120203        9.9243110173        2.8978029885
