192
Lattice="11.358 0.0 0.0 -5.147950824045998 11.470885982880008 0.0 0.0 0.0 29.527031199999996" Properties=species:S:1:pos:R:3:spacegroup_kinds:I:1:tags:I:1:forces:R:3 energy=-1374.0018979381528 pbc="T T F"
Ca       9.29475615       1.43386074       2.31877945        0        1      -0.00000009       0.00000038      -0.00000093
Ca       2.32876843       4.30158225       9.46892445        0        1       0.00000005      -0.00000005      -0.00000189
Ca      -0.51073155       4.30158224      14.20825169        0        1       0.00000000      -0.00000009       0.00000139
Ca       0.77625614       1.43386075       7.05810675        0        1       0.00000005      -0.00000002       0.00000186
S        2.32876838       4.30158230       2.01194822        1        1       0.00000700      -0.00000583       0.00000069
S        9.29475615       1.43386075       9.36449977        1        1       0.00000008       0.00000018       0.00000025
S        0.77625615       1.43386074      14.51508298        1        1      -0.00000098       0.00000075      -0.00000063
S       -0.51073156       4.30158224       7.16253143        1        1       0.00000016      -0.00000004      -0.00000009
O        7.44512249       3.21143881       2.88157116        2        1      -0.00000072       0.00000129       0.00000093
O        8.85022036       0.29411240      10.20131960        2        1       0.00000050       0.00000056       0.00000070
O        1.33890211       2.52400418      13.64546004        2        1       0.00000025      -0.00000082      -0.00000090
O       -0.06619577       5.44133059       6.32571160        2        1      -0.00000055      -0.00000058      -0.00000067
O        2.89141441       5.39172567       2.88157116        2        1      -0.00000018      -0.00000008       0.00000112
O        9.73929194       2.57360910      10.20131961        2        1      -0.00000057      -0.00000070       0.00000059
O        5.89261019       0.34371732      13.64546004        2        1      -0.00000047       0.00000071      -0.00000108
O       -0.95526735       3.16183389       6.32571160        2        1       0.00000050       0.00000058      -0.00000068
O        9.05023434       3.64244729       1.22273165        3        1      -0.00000265       0.00000129       0.00000228
O       10.39827955       0.92775090       8.54064726        3        1       0.00000056       0.00000103       0.00000057
O       -0.26620976       2.09299569      15.30429957        3        1       0.00000177      -0.00000051      -0.00000200
O       -1.61425496       4.80769209       7.98638394        3        1      -0.00000059      -0.00000099      -0.00000055
O        1.28630256       4.96071717       1.22273165        3        1      -0.00000175       0.00000169      -0.00000035
O        8.19123275       1.93997060       8.54064726        3        1      -0.00000059      -0.00000101       0.00000056
O        7.49772203       0.77472581      15.30429954        3        1      -0.00000035      -0.00000020      -0.00000076
O        0.59279184       3.79547239       7.98638394        3        1       0.00000045       0.00000109      -0.00000063
O       -0.76525478       2.72147103       3.66560107        4        1      -0.00000009       0.00000031      -0.00000380
O       -2.01965857       5.52796287      10.95059735        4        1       0.00000215       0.00000217      -0.00000515
O        9.54927937       3.01397197      12.86143014        4        1      -0.00000017      -0.00000040       0.00000405
O       10.80368315       0.20748013       5.57643386        4        1      -0.00000204      -0.00000223       0.00000495
O        7.99676707       0.14625046       3.66560107        4        1      -0.00000026      -0.00000041      -0.00000423
O        0.99819545       3.07520162      10.95059734        4        1      -0.00000198      -0.00000217      -0.00000488
O        0.78725751       5.58919252      12.86143013        4        1       0.00000015       0.00000040       0.00000398
O        7.78582914       2.66024136       5.57643385        4        1       0.00000224       0.00000219       0.00000538
H        0.09685702       3.05206231       3.32710796        5        1      -0.00000105       0.00000469      -0.00000335
H        7.11878840       0.05698399      10.62880203        5        1       0.00000274       0.00000525      -0.00000147
H        8.68716757       2.68338069      13.19992326        5        1       0.00000129      -0.00000468       0.00000322
H        1.66523619       5.67845901       5.89822916        5        1      -0.00000285      -0.00000531       0.00000154
H       -1.11832014       5.55110219       3.32710794        5        1       0.00000138      -0.00000468      -0.00000317
H        0.11272389       2.81073751      10.62880204        5        1      -0.00000292      -0.00000533      -0.00000155
H        9.90234473       0.18434081      13.19992324        5        1      -0.00000127       0.00000466       0.00000332
H        8.67130070       2.92470548       5.89822917        5        1       0.00000264       0.00000521       0.00000143
H       -0.77137924       2.89451707       4.63048735        6        1       0.00000091      -0.00000340      -0.00000231
H       -2.08582782       5.79795652      11.88357620        6        1      -0.00000214       0.00000153      -0.00000418
H        9.55540385       2.84092594      11.89654386        6        1      -0.00000101       0.00000327       0.00000202
H        5.72190158      11.40837245       4.64345501        6        1       0.00000211      -0.00000144       0.00000433
H        2.85494071      11.44409041       4.63048735        6        1      -0.00000090       0.00000334      -0.00000203
H        1.06436470       2.80520797      11.88357620        6        1       0.00000214      -0.00000148      -0.00000435
H        0.78113304       5.76223855      11.89654385        6        1       0.00000102      -0.00000328       0.00000210
H        7.71965989       2.93023503       4.64345501        6        1      -0.00000214       0.00000154       0.00000397
Ca       3.61575615       1.43386074       2.31877945        0        1      -0.00000011       0.00000070      -0.00000095
Ca       8.00776843       4.30158225       9.46892445        0        1       0.00000006      -0.00000004      -0.00000190
Ca       5.16826844       4.30158224      14.20825169        0        1       0.00000000      -0.00000013       0.00000139
Ca       6.45525614       1.43386075       7.05810675        0        1       0.00000006      -0.00000002       0.00000185
S        8.00776840       4.30158228       2.01194822        1        1       0.00000378      -0.00000344       0.00000069
S        3.61575615       1.43386075       9.36449977        1        1       0.00000008       0.00000017       0.00000026
S        6.45525615       1.43386074      14.51508298        1        1      -0.00000146       0.00000111      -0.00000063
S        5.16826844       4.30158224       7.16253143        1        1       0.00000017      -0.00000004      -0.00000016
O        1.76612249       3.21143881       2.88157116        2        1      -0.00000094       0.00000153       0.00000087
O        3.17122036       0.29411240      10.20131960        2        1       0.00000050       0.00000057       0.00000069
O        7.01790211       2.52400418      13.64546004        2        1       0.00000029      -0.00000085      -0.00000091
O        5.61280423       5.44133059       6.32571159        2        1      -0.00000055      -0.00000060      -0.00000065
O        8.57041441       5.39172567       2.88157116        2        1       0.00000004      -0.00000032       0.00000106
O        4.06029194       2.57360910      10.20131961        2        1      -0.00000057      -0.00000070       0.00000059
O        0.21361019       0.34371732      13.64546004        2        1      -0.00000051       0.00000074      -0.00000108
O        4.72373265       3.16183389       6.32571160        2        1       0.00000051       0.00000060      -0.00000066
O        3.37123436       3.64244728       1.22273164        3        1      -0.00000406       0.00000212       0.00000319
O        4.71927955       0.92775090       8.54064726        3        1       0.00000056       0.00000103       0.00000056
O        5.41279024       2.09299569      15.30429957        3        1       0.00000198      -0.00000064      -0.00000213
O        4.06474504       4.80769209       7.98638394        3        1      -0.00000061      -0.00000098      -0.00000053
O        6.96530255       4.96071717       1.22273164        3        1      -0.00000034       0.00000086       0.00000056
O        2.51223275       1.93997060       8.54064726        3        1      -0.00000059      -0.00000101       0.00000055
O        1.81872203       0.77472581      15.30429954        3        1      -0.00000055      -0.00000008      -0.00000089
O        6.27179184       3.79547239       7.98638394        3        1       0.00000047       0.00000109      -0.00000061
O        4.91374522       2.72147103       3.66560107        4        1      -0.00000002       0.00000031      -0.00000376
O        3.65934143       5.52796287      10.95059735        4        1       0.00000216       0.00000217      -0.00000515
O        3.87027937       3.01397197      12.86143014        4        1      -0.00000018      -0.00000040       0.00000405
O        5.12468315       0.20748013       5.57643386        4        1      -0.00000205      -0.00000224       0.00000493
O        2.31776707       0.14625046       3.66560107        4        1      -0.00000022      -0.00000042      -0.00000425
O        6.67719545       3.07520162      10.95059734        4        1      -0.00000199      -0.00000217      -0.00000489
O        6.46625751       5.58919252      12.86143013        4        1       0.00000015       0.00000040       0.00000399
O        2.10682914       2.66024136       5.57643385        4        1       0.00000223       0.00000217       0.00000541
H        5.77585702       3.05206231       3.32710796        5        1      -0.00000114       0.00000469      -0.00000335
H        1.43978840       0.05698399      10.62880203        5        1       0.00000274       0.00000525      -0.00000147
H        3.00816757       2.68338069      13.19992326        5        1       0.00000131      -0.00000468       0.00000321
H        7.34423619       5.67845901       5.89822916        5        1      -0.00000286      -0.00000531       0.00000154
H        4.56067986       5.55110219       3.32710794        5        1       0.00000147      -0.00000469      -0.00000316
H        5.79172389       2.81073751      10.62880204        5        1      -0.00000292      -0.00000533      -0.00000155
H        4.22334473       0.18434081      13.19992324        5        1      -0.00000129       0.00000466       0.00000331
H        2.99230070       2.92470548       5.89822917        5        1       0.00000265       0.00000522       0.00000143
H        4.90762076       2.89451707       4.63048735        6        1       0.00000092      -0.00000340      -0.00000236
H        3.59317218       5.79795652      11.88357620        6        1      -0.00000214       0.00000152      -0.00000418
H        3.87640385       2.84092594      11.89654386        6        1      -0.00000102       0.00000327       0.00000203
H        0.04290158      11.40837245       4.64345501        6        1       0.00000212      -0.00000142       0.00000435
H       -2.82405929      11.44409041       4.63048735        6        1      -0.00000090       0.00000334      -0.00000200
H        6.74336470       2.80520797      11.88357620        6        1       0.00000214      -0.00000148      -0.00000434
H        6.46013304       5.76223855      11.89654385        6        1       0.00000102      -0.00000328       0.00000210
H        2.04065989       2.93023503       4.64345501        6        1      -0.00000214       0.00000156       0.00000393
Ca       1.04178073       7.16930373       2.31877952        0        1      -0.00000010       0.00000070      -0.00000140
Ca       5.43379303      10.03702523       9.46892445        0        1      -0.00000004       0.00000003      -0.00000186
Ca       2.59429303      10.03702524      14.20825175        0        1       0.00000004      -0.00000016       0.00000092
Ca       3.88128074       7.16930374       7.05810675        0        1      -0.00000002       0.00000005       0.00000190
S        5.43379301      10.03702525       2.01194822        1        1       0.00000336      -0.00000278       0.00000064
S        1.04178073       7.16930374       9.36449977        1        1      -0.00000015       0.00000011       0.00000013
S        3.88128075       7.16930373      14.51508298        1        1      -0.00000110       0.00000100      -0.00000069
S        2.59429303      10.03702524       7.16253143        1        1      -0.00000010      -0.00000008      -0.00000029
O       -0.80785294       8.94688180       2.88157116        2        1      -0.00000044       0.00000131       0.00000067
O        0.59724494       6.02955539      10.20131960        2        1       0.00000053       0.00000056       0.00000067
O        4.44392668       8.25944717      13.64546004        2        1       0.00000067      -0.00000089      -0.00000114
O        3.03882881      11.17677359       6.32571160        2        1      -0.00000052      -0.00000060      -0.00000067
O        5.99643898      11.12716866       2.88157115        2        1       0.00000050      -0.00000047       0.00000130
O        1.48631652       8.30905209      10.20131961        2        1      -0.00000052      -0.00000062       0.00000065
O       -2.36036523       6.07916031      13.64546004        2        1      -0.00000010       0.00000072      -0.00000082
O        2.14975724       8.89727688       6.32571160        2        1       0.00000056       0.00000067      -0.00000060
O        0.79725896       9.37789028       1.22273162        3        1      -0.00000407       0.00000179       0.00000351
O        2.14530413       6.66319389       8.54064726        3        1       0.00000060       0.00000098       0.00000053
O        2.83881484       7.82843869      15.30429955        3        1       0.00000141      -0.00000055      -0.00000146
O        1.49076963      10.54313509       7.98638394        3        1      -0.00000055      -0.00000104      -0.00000057
O        4.39132715      10.69616017       1.22273166        3        1      -0.00000058       0.00000068       0.00000010
O       -0.06174267       7.67541359       8.54064726        3        1      -0.00000046      -0.00000109       0.00000063
O       -0.75525336       6.51016881      15.30429957        3        1      -0.00000108      -0.00000005      -0.00000151
O        3.69781643       9.53091539       7.98638394        3        1       0.00000061       0.00000099      -0.00000053
O        2.33976981       8.45691402       3.66560106        4        1       0.00000006       0.00000034      -0.00000386
O        1.08536602      11.26340585      10.95059735        4        1       0.00000215       0.00000221      -0.00000515
O        1.29630395       8.74941495      12.86143013        4        1      -0.00000010      -0.00000034       0.00000403
O        2.55070775       5.94292312       5.57643386        4        1      -0.00000203      -0.00000220       0.00000485
O       -0.25620834       5.88169346       3.66560107        4        1      -0.00000026      -0.00000044      -0.00000426
O        4.10322003       8.81064462      10.95059734        4        1      -0.00000210      -0.00000221      -0.00000512
O        3.89228211      11.32463552      12.86143013        4        1       0.00000011       0.00000037       0.00000406
O       -0.46714628       8.39568436       5.57643385        4        1       0.00000208       0.00000213       0.00000511
H        3.20188160       8.78750529       3.32710794        5        1      -0.00000121       0.00000472      -0.00000323
H       -1.13418701       5.79242698      10.62880204        5        1       0.00000273       0.00000527      -0.00000148
H        0.43419215       8.41882368      13.19992325        5        1       0.00000124      -0.00000467       0.00000331
H        4.77026077      11.41390200       5.89822917        5        1      -0.00000284      -0.00000528       0.00000151
H        1.98670445      11.28654517       3.32710795        5        1       0.00000143      -0.00000464      -0.00000326
H        3.21774848       8.54618050      10.62880203        5        1      -0.00000277      -0.00000525      -0.00000149
H        1.64936931       5.91978380      13.19992326        5        1      -0.00000128       0.00000471       0.00000322
H        0.41832528       8.66014847       5.89822916        5        1       0.00000282       0.00000530       0.00000150
H        2.33364533       8.62996005       4.63048735        6        1       0.00000104      -0.00000328      -0.00000216
H        6.16714759       0.06251353      11.88357619        6        1      -0.00000212       0.00000148      -0.00000418
H        1.30242842       8.57636891      11.89654385        6        1      -0.00000091       0.00000337       0.00000215
H        2.61687700       5.67292947       4.64345500        6        1       0.00000213      -0.00000146       0.00000442
H       -0.25008386       5.70864743       4.63048734        6        1      -0.00000102       0.00000323      -0.00000190
H        4.16938929       8.54065095      11.88357619        6        1       0.00000213      -0.00000148      -0.00000416
H        9.03410846       0.02679557      11.89654385        6        1       0.00000089      -0.00000337       0.00000212
H       -0.53331553       8.66567801       4.64345500        6        1      -0.00000215       0.00000155       0.00000417
Ca       6.72078073       7.16930374       2.31877952        0        1      -0.00000008       0.00000038      -0.00000142
Ca      -0.24520697      10.03702523       9.46892445        0        1      -0.00000004       0.00000003      -0.00000186
Ca      -3.08470697      10.03702524      14.20825175        0        1       0.00000004      -0.00000011       0.00000092
Ca      -1.79771926       7.16930374       7.05810675        0        1      -0.00000002       0.00000005       0.00000191
S       -0.24520702      10.03702527       2.01194822        1        1       0.00000599      -0.00000472       0.00000064
S        6.72078073       7.16930374       9.36449977        1        1      -0.00000014       0.00000011       0.00000012
S       -1.79771925       7.16930373      14.51508298        1        1      -0.00000074       0.00000073      -0.00000069
S       -3.08470697      10.03702524       7.16253143        1        1      -0.00000009      -0.00000008      -0.00000023
O        4.87114706       8.94688180       2.88157116        2        1      -0.00000028       0.00000112       0.00000072
O        6.27624494       6.02955539      10.20131960        2        1       0.00000053       0.00000056       0.00000067
O       -1.23507332       8.25944717      13.64546005        2        1       0.00000065      -0.00000086      -0.00000116
O       -2.64017119      11.17677359       6.32571160        2        1      -0.00000052      -0.00000059      -0.00000069
O        0.31743898      11.12716866       2.88157115        2        1       0.00000033      -0.00000028       0.00000135
O        7.16531652       8.30905209      10.20131961        2        1      -0.00000052      -0.00000062       0.00000065
O        3.31863477       6.07916031      13.64546004        2        1      -0.00000009       0.00000069      -0.00000084
O       -3.52924276       8.89727688       6.32571160        2        1       0.00000056       0.00000066      -0.00000062
O        6.47625895       9.37789029       1.22273162        3        1      -0.00000292       0.00000113       0.00000276
O        7.82430413       6.66319389       8.54064726        3        1       0.00000060       0.00000099       0.00000053
O       -2.84018515       7.82843869      15.30429955        3        1       0.00000124      -0.00000046      -0.00000135
O       -4.18823037      10.54313509       7.98638394        3        1      -0.00000054      -0.00000105      -0.00000058
O       -1.28767284      10.69616017       1.22273167        3        1      -0.00000173       0.00000134      -0.00000065
O        5.61725733       7.67541359       8.54064726        3        1      -0.00000046      -0.00000109       0.00000063
O        4.92374664       6.51016881      15.30429956        3        1      -0.00000091      -0.00000013      -0.00000140
O       -1.98118357       9.53091539       7.98638394        3        1       0.00000059       0.00000100      -0.00000055
O       -3.33923019       8.45691402       3.66560106        4        1       0.00000002       0.00000035      -0.00000388
O       -4.59363398      11.26340585      10.95059735        4        1       0.00000215       0.00000221      -0.00000515
O        6.97530395       8.74941495      12.86143013        4        1      -0.00000009      -0.00000034       0.00000404
O        8.22970775       5.94292312       5.57643386        4        1      -0.00000202      -0.00000219       0.00000488
O        5.42279166       5.88169346       3.66560107        4        1      -0.00000033      -0.00000044      -0.00000422
O       -1.57577997       8.81064462      10.95059734        4        1      -0.00000210      -0.00000222      -0.00000511
O       -1.78671789      11.32463552      12.86143013        4        1       0.00000012       0.00000037       0.00000405
O        5.21185372       8.39568436       5.57643385        4        1       0.00000209       0.00000214       0.00000509
H       -2.47711840       8.78750529       3.32710794        5        1      -0.00000115       0.00000471      -0.00000323
H        4.54481299       5.79242698      10.62880204        5        1       0.00000273       0.00000527      -0.00000148
H        6.11319215       8.41882368      13.19992325        5        1       0.00000123      -0.00000467       0.00000330
H       -0.90873923      11.41390200       5.89822917        5        1      -0.00000283      -0.00000528       0.00000151
H       -3.69229555      11.28654517       3.32710795        5        1       0.00000137      -0.00000464      -0.00000326
H       -2.46125152       8.54618050      10.62880203        5        1      -0.00000277      -0.00000525      -0.00000149
H        7.32836931       5.91978380      13.19992326        5        1      -0.00000127       0.00000471       0.00000322
H        6.09732528       8.66014847       5.89822916        5        1       0.00000281       0.00000530       0.00000150
H       -3.34535467       8.62996005       4.63048735        6        1       0.00000104      -0.00000328      -0.00000214
H        0.48814759       0.06251353      11.88357619        6        1      -0.00000213       0.00000149      -0.00000417
H        6.98142842       8.57636891      11.89654385        6        1      -0.00000091       0.00000336       0.00000215
H        8.29587700       5.67292947       4.64345500        6        1       0.00000213      -0.00000147       0.00000439
H        5.42891614       5.70864743       4.63048734        6        1      -0.00000103       0.00000324      -0.00000194
H       -1.50961071       8.54065095      11.88357619        6        1       0.00000213      -0.00000148      -0.00000416
H        3.35510846       0.02679557      11.89654385        6        1       0.00000089      -0.00000337       0.00000213
H        5.14568447       8.66567801       4.64345500        6        1      -0.00000215       0.00000153       0.00000420
