     192
 i =        1, E =     -2327.4916107046
 Ca         9.2947381783        1.4336939908        1.9522870369
 Ca         2.3288477675        4.3016650260        9.4749773082
 Ca        -0.5107143736        4.3017483139       14.5746762956
 Ca         0.7761785266        1.4337713467        7.0521103605
  S         2.3285311831        4.3016846681        1.7194482247
  S         9.2947892920        1.4338555341        9.4349252138
  S         0.7760182036        1.4339380182       14.8075775698
  S        -0.5107647282        4.3015873874        7.0921147876
  O         7.6124891156        3.1869392053        2.6192760724
  O         8.8827479131        0.2883650624       10.2701553022
  O         1.1715424023        2.5485043127       13.9077523999
  O        -0.0987232085        5.4470783847        6.2568858131
  O         2.7240465535        5.4162432225        2.6192868170
  O         9.7067926428        2.5793514679       10.2701685605
  O         6.0599753367        0.3192013352       13.9077377214
  O        -0.9227683469        3.1560915214        6.2568718200
  O         9.0465866063        3.8470182663        0.7500000000
  O        10.4107808237        0.9573385247        8.6006201155
  O        -0.2625590674        1.8884262913       15.7770280709
  O        -1.6267578456        4.7781018667        7.9264202063
  O         1.2899503870        4.7561836266        0.7500083879
  O         8.1787803809        1.9103680561        8.6006412037
  O         7.4940737899        0.9792581701       15.7770179070
  O         0.6052456709        3.8250768607        7.9263989734
  O        -0.7293747085        2.6324794881        3.4312188789
  O        -2.0189270700        5.4988993247       11.0290309674
  O         9.5133948998        3.1029544119       13.0958151228
  O        10.8029532755        0.2365553866        5.4979985075
  O         7.9609139466        0.2352622449        3.4312118797
  O         0.9976401264        3.1046059737       11.0278068839
  O         0.8231092568        5.5001887042       13.0958194963
  O         7.7863825722        2.6308253553        5.4992207078
  H         0.1412502199        2.8907027147        3.1172630996
  H         7.1058716806        0.0217931833       10.7185407814
  H         8.6427712895        2.8447379170       13.4097700679
  H         1.6781564819        5.7136507941        5.8084879846
  H        -1.1627425480        5.7125061703        3.1170402343
  H         0.1256389315        2.8459022153       10.7186550918
  H         9.9467691540        0.0229360520       13.4099926722
  H         8.6583813264        2.8895395564        5.8083733848
  H        -0.7712388646        2.8218097288        4.3547035071
  H        -2.0557489610        5.6907191775       11.9533442062
  H         9.5552631528        2.9136333587       12.1723298407
  H        10.8397730014        0.0447236642        4.5736871068
  H         8.0027522665        0.0459105076        4.3547038451
  H         1.0339953906        2.9125325576       11.9522423739
  H         0.7812710545        5.6895324181       12.1723264839
  H         7.7500306558        2.8229117930        4.5747883470
 Ca         3.6157424729        1.4336973052        1.9521102706
 Ca         8.0078462725        4.3016714999        9.4749760003
 Ca         5.1682817762        4.3017449676       14.5748537698
 Ca         6.4551785079        1.4337790821        7.0521083850
  S         8.0080064054        4.3015047355        1.7194472997
  S         3.6157889323        1.4338554688        9.4349403574
  S         6.4554930862        1.4337580741       14.8075781601
  S         5.1682353359        4.3015873649        7.0920996993
  O         1.9335642380        3.1868439313        2.6190736961
  O         3.2037394964        0.2883581056       10.2701536268
  O         6.8504664673        2.5485979269       13.9079522440
  O         5.5802847494        5.4470853269        6.2568876076
  O         8.4029751907        5.4163375692        2.6190840691
  O         4.0277999137        2.5793580642       10.2701673169
  O         0.3810451096        0.3191052082       13.9079432719
  O         4.7562242076        3.1560845857        6.2568733358
  O         3.3672824271        3.8468712575        0.7504870401
  O         4.7317896561        0.9573407701        8.6006473819
  O         5.4167444230        1.8885763492       15.7765389275
  O         4.0522333426        4.7780997380        7.9263931818
  O         6.9692498806        4.7563241876        0.7504979144
  O         2.4997713819        1.9103661157        8.6006680433
  O         1.8147734944        0.9791181317       15.7765299337
  O         6.2842544671        3.8250789053        7.9263721366
  O         4.9494792639        2.6325183237        3.4314332645
  O         3.6600746636        5.4988984507       11.0290244764
  O         3.8345434626        3.1029160771       13.0955993895
  O         5.1239520000        0.2365564919        5.4980048855
  O         2.2820587602        0.2352212245        3.4314289744
  O         6.6766372847        3.1046065535       11.0277993458
  O         6.5019672652        5.5002301025       13.0956035311
  O         2.1073857816        2.6308248716        5.4992299740
  H         5.8201880122        2.8906558969        3.1170632462
  H         1.4268763929        0.0217931806       10.7185352785
  H         2.9638337207        2.8447863594       13.4099696222
  H         7.3571520839        5.7136506898        5.8084930157
  H         4.5163216533        5.7125582693        3.1168361840
  H         5.8046349828        2.8459022951       10.7186505233
  H         4.2677054331        0.0228855022       13.4101967378
  H         2.9793861939        2.8895396655        5.8083783568
  H         4.9075509502        2.8217863682        4.3549621466
  H         3.6232498538        5.6907177873       11.9533393058
  H         3.8764741810        2.9136568406       12.1720696706
  H         5.1607733716        0.0447247958        4.5736920285
  H         2.3239697197        0.0459352627        4.3549681717
  H         6.7129972780        2.9125342815       11.9522372841
  H         6.4600544436        5.6895076037       12.1720634801
  H         2.0710279913        2.8229088509        4.5747938145
 Ca         1.0417671176        7.1692279257        1.9523408486
 Ca         5.4338040483       10.0370427274        9.4748847007
 Ca         2.5943061993       10.0370998289       14.5746225058
 Ca         3.8812710726        7.1692784667        7.0522022107
  S         5.4335508244       10.0372810048        1.7198522488
  S         1.0418018088        7.1692983707        9.4348915539
  S         3.8810463803        7.1692340850       14.8071702942
  S         2.5942719872       10.0370304279        7.0921483404
  O        -0.6404630234        8.9223499787        2.6193984374
  O         0.6298564914        6.0237937601       10.2701636389
  O         4.2765435995        8.2839796691       13.9076300442
  O         3.0062171539       11.1825356707        6.2568773678
  O         5.8286116437       11.1512496022        2.6205634800
  O         1.4537888641        8.3147910941       10.2701481880
  O        -2.1925408257        6.0550809025       13.9064611449
  O         2.1822842704        8.8915378442        6.2568921564
  O         0.7935268740        9.5828741530        0.7501843643
  O         2.1578108399        6.6928132790        8.6005912268
  O         2.8425498264        7.6234562722       15.7768437745
  O         1.4782614795       10.5135131431        7.9264489981
  O         4.3952486711       10.4919450912        0.7501712592
  O        -0.0742249892        7.6457916816        8.6006164957
  O        -0.7591750900        6.7143824123       15.7768548133
  O         3.7103002521        9.5605392111        7.9264237426
  O         2.3756807346        8.3679317609        3.4312208601
  O         1.0860383967       11.2340614294       11.0278715686
  O         1.2603887708        8.8383882500       13.0958132053
  O         2.5500371007        5.9722792385        5.4991580292
  O        -0.2922653570        5.9706013717        3.4313044138
  O         4.1026983607        8.8400674706       11.0277973581
  O         3.9283380949       11.2357354160       13.0957264814
  O        -0.4666264244        8.3662500068        5.4992303932
  H         3.2462978334        8.6261443093        3.1172307693
  H        -1.1472478283        5.7571924269       10.7185135147
  H         0.3897728997        8.5801824679       13.4098023050
  H         4.7833251155       11.4491375510        5.8085154194
  H         1.9423415464       11.4479087820        3.1172687193
  H         3.2306906017        8.5813453446       10.7186868269
  H         1.6937343354        5.7584192756       13.4097635933
  H         0.4053789714        8.6249824913        5.8083415781
  H         2.3337598291        8.5572437555        4.3547076941
  H         1.0494577864       11.4260504963       11.9523186541
  H         1.3023135919        8.6490853109       12.1723257394
  H         2.5866150767        5.7802784174        4.5747127054
  H        -0.2500188417        5.7814063954        4.3548217679
  H         4.1389925883        8.6479671424       11.9522247109
  H         3.8860912165       11.4249224457       12.1722081666
  H        -0.5029174448        8.5583629909        4.5748060726
 Ca         6.7207590827        7.1692173450        1.9521720283
 Ca        -0.2451967268       10.0370506553        9.4748841761
 Ca        -3.0846854851       10.0371121593       14.5747916102
 Ca        -1.7977284101        7.1692873397        7.0522010114
  S        -0.2449727088       10.0370946961        1.7198545157
  S         6.7208001007        7.1692968313        9.4349046388
  S        -1.7974773265        7.1690475956       14.8071742614
  S        -3.0847266138       10.0370319389        7.0921352972
  O         5.0386264206        8.9222546660        2.6191918437
  O         6.3088486774        6.0237856410       10.2701625461
  O        -1.4025474188        8.2840732345       13.9078341020
  O        -2.6727754413       11.1825438440        6.2568785899
  O         0.1495362901       11.1513423548        2.6203578788
  O         7.1327948097        8.3147946036       10.2701468949
  O         3.4865328694        6.0549862762       13.9066696861
  O        -3.4967216483        8.8915340828        6.2568936106
  O         6.4722226297        9.5827356381        0.7506692885
  O         7.8368198713        6.6928196759        8.6006152391
  O        -2.8361466278        7.6235973722       15.7763571809
  O        -4.2007476272       10.5135067037        7.9264252968
  O        -1.2834456718       10.4920967484        0.7506688895
  O         5.6047680535        7.6457935645        8.6006393738
  O         4.9195184462        6.7142321764       15.7763588707
  O        -1.9686931294        9.5605375040        7.9264009553
  O        -3.3034511511        8.3679767764        3.4314366327
  O        -4.5929579145       11.2340611622       11.0278637539
  O         6.9395232579        8.8383436062       13.0955958922
  O         8.2290337096        5.9722797869        5.4991657564
  O         5.3868759056        5.9705612396        3.4315180815
  O        -1.5763048051        8.8400675392       11.0277899408
  O        -1.7508006576       11.2357762068       13.0955143814
  O         5.2123770614        8.3662496545        5.4992392403
  H        -2.4327510820        8.6260986863        3.1170240827
  H         4.5317550796        5.7571923828       10.7185111679
  H         6.0688222726        8.5802296160       13.4100088957
  H        -0.8956773912       11.4491375481        5.8085172620
  H        -3.7365992275       11.4479570994        3.1170595027
  H        -2.4483136845        8.5813453392       10.7186817378
  H         7.3726752617        5.7583727421       13.4099732672
  H         6.0843838792        8.6249824783        5.8083473880
  H        -3.3454543067        8.5572193455        4.3549695978
  H        -4.6295450988       11.4260482521       11.9523136105
  H         6.9815285303        8.6491097686       12.1720620471
  H         8.2656176200        5.7802802878        4.5747178635
  H         5.4291970210        5.7814318846        4.3550808733
  H        -1.5400047468        8.6479692673       11.9522200649
  H        -1.7931239198       11.4248968920       12.1719507270
  H         5.1760793784        8.5583600372        4.5748110519
     192
 i =        2, E =     -2329.2817385095
 Ca         9.2946946152        1.4336632907        2.2020531698
 Ca         2.3288181971        4.3016275845        9.4769089290
 Ca        -0.5106712477        4.3017795957       14.3246762956
 Ca         0.7762204827        1.4338104689        7.0503353724
  S         2.3285098857        4.3016330158        1.7401658571
  S         9.2947885935        1.4338627490        9.4374712199
  S         0.7759555576        1.4338867410       14.7868537565
  S        -0.5107639383        4.3015804217        7.0895932014
  O         7.6060248147        3.1856857991        2.6507841438
  O         8.8802217406        0.2858140173       10.2744830069
  O         1.1780161733        2.5497592986       13.8762437118
  O        -0.0961958649        5.4496310289        6.2525861242
  O         2.7305186324        5.4175126045        2.6507866088
  O         9.7092966114        2.5819318673       10.2744912183
  O         6.0534922369        0.3179298838       13.8762379004
  O        -0.9252729199        3.1535097045        6.2525774858
  O         9.0585706440        3.8334218190        0.7899129776
  O        10.4117870449        0.9553281391        8.5992813939
  O        -0.2745384965        1.9020238780       15.7371156574
  O        -1.6277679138        4.7801055785        7.9277851952
  O         1.2779828173        4.7698115988        0.7899766940
  O         8.1777532581        1.9123463014        8.5993078109
  O         7.5060362424        0.9656282848       15.7370493426
  O         0.6062765056        3.8231051137        7.9277586087
  O        -0.7213443987        2.6359994228        3.4319075357
  O        -2.0190050249        5.5007190343       11.0289390926
  O         9.5053606018        3.0994071478       13.0951287420
  O        10.8030366514        0.2347696088        5.4980853282
  O         7.9529597238        0.2317830695        3.4319183889
  O         0.9976910815        3.1027984048       11.0275948280
  O         0.8310709880        5.5036968338       13.0951153837
  O         7.7863263121        2.6325997825        5.4994277704
  H         0.1523636492        2.8963723702        3.1174890508
  H         7.1107175001        0.0230259039       10.7164799642
  H         8.6316495676        2.8390659217       13.4095485157
  H         1.6733217711        5.7124211776        5.8105418042
  H        -1.1739480597        5.7069084730        3.1168277038
  H         0.1206612240        2.8446396927       10.7164883432
  H         9.9579835535        0.0285369016       13.4102119332
  H         8.6633487875        2.8907996960        5.8105321345
  H        -0.7754242126        2.8208448222        4.3610660431
  H        -2.0568794654        5.6935902478       11.9614526482
  H         9.5594493716        2.9145977457       12.1659672778
  H        10.8409019321        0.0418525382        4.5655792742
  H         8.0068615601        0.0468303540        4.3611042841
  H         1.0351550484        2.9097377450       11.9600407573
  H         0.7771597730        5.6886126538       12.1659257386
  H         7.7488738466        2.8257073974        4.5669900763
 Ca         3.6157000283        1.4336694828        2.2018246978
 Ca         8.0078035617        4.3016322170        9.4769069585
 Ca         5.1683242763        4.3017722379       14.3249110095
 Ca         6.4552058000        1.4338152279        7.0503349930
  S         8.0080695956        4.3015557926        1.7401656204
  S         3.6157875952        1.4338623485        9.4374848545
  S         6.4555141922        1.4338099334       14.7868541042
  S         5.1682367234        4.3015806241        7.0895796484
  O         1.9267207268        3.1856268261        2.6507059022
  O         3.2012078809        0.2857984654       10.2744661622
  O         6.8573209042        2.5498167163       13.8763195606
  O         5.5828176403        5.4496463274        6.2526030604
  O         8.4098355344        5.4175729377        2.6507022841
  O         4.0303089568        2.5819451399       10.2744754777
  O         0.3741738928        0.3178687214       13.8763237141
  O         4.7537146706        3.1534959707        6.2525933366
  O         3.3794886922        3.8332392699        0.7907917644
  O         4.7328047021        0.9553348905        8.5993177724
  O         5.4045415316        1.9022102995       15.7362328589
  O         4.0512145312        4.7800990903        7.9277491344
  O         6.9570520094        4.7699691695        0.7908592081
  O         2.4987361926        1.9123432234        8.5993431586
  O         1.8269664946        0.9654694917       15.7361686521
  O         6.2852935079        3.8231083763        7.9277232059
  O         4.9575281829        2.6360556375        3.4321687682
  O         3.6599959894        5.5007212061       11.0289340108
  O         3.8264887552        3.0993506594       13.0948661550
  O         5.1240361114        0.2347677619        5.4980898934
  O         2.2740826146        0.2317222456        3.4321846000
  O         6.6766887135        3.1027956174       11.0275906823
  O         6.5099493147        5.5037569667       13.0948501740
  O         2.1073285847        2.6326027933        5.4994336498
  H         5.8311451435        2.8962990373        3.1172880333
  H         1.4317212561        0.0230255786       10.7164720957
  H         2.9528679113        2.8391405529       13.4097500742
  H         7.3523183533        5.7124213445        5.8105494918
  H         4.5052733230        5.7069830840        3.1166433073
  H         5.7996585872        2.8446403416       10.7164816679
  H         4.2787627492        0.0284633008       13.4103954275
  H         2.9843516613        2.8907985749        5.8105399813
  H         4.9033211688        2.8208130481        4.3613629200
  H         3.6221183212        5.6935851778       11.9614495834
  H         3.8807052863        2.9146299803       12.1656686747
  H         5.1619027681        0.0418570517        4.5655819757
  H         2.3281250155        0.0468635425        4.3614097362
  H         6.7141578270        2.9097427808       11.9600389269
  H         6.4558978264        5.6885795127       12.1656215997
  H         2.0698697783        2.8257005763        4.5669926024
 Ca         1.0417992966        7.1691810204        2.2020010547
 Ca         5.4338562820       10.0370630940        9.4768543263
 Ca         2.5942743066       10.0371468943       14.3247269326
 Ca         3.8812307876        7.1692602362        7.0503909732
  S         5.4335558015       10.0373617895        1.7408453717
  S         1.0418023905        7.1692945276        9.4374663962
  S         3.8809514723        7.1690520550       14.7861677755
  S         2.5942715897       10.0370343480        7.0895978423
  O        -0.6469572225        8.9210820444        2.6509459345
  O         0.6273559765        6.0212314217       10.2745643422
  O         4.2830470108        8.2852493185       13.8760819522
  O         3.0087185086       11.1850996295        6.2525046848
  O         5.8350412621       11.1525697440        2.6526109298
  O         1.4563164288        8.3173832291       10.2744619057
  O        -2.1989822007        6.0537578476       13.8744155643
  O         2.1797556027        8.8889442909        6.2526067209
  O         0.8054863602        9.5692740574        0.7903501497
  O         2.1588381496        6.6907959474        8.5992999064
  O         2.8305949743        7.6370576352       15.7366789213
  O         1.4772305409       10.5155238568        7.9277664757
  O         4.3832547190       10.5054688891        0.7903230359
  O        -0.0752729638        7.6477534518        8.5993259711
  O        -0.7471857959        6.7008563486       15.7367022656
  O         3.7113519920        9.5585838958        7.9277406510
  O         2.3837256481        8.3714616193        3.4319279208
  O         1.0860498806       11.2358656192       11.0275854578
  O         1.2523398390        8.8348311191       13.0951084824
  O         2.5500313045        5.9705082286        5.4994391975
  O        -0.3006701909        5.9668898812        3.4322048779
  O         4.1027486251        8.8382662219       11.0275861647
  O         3.9367505253       11.2394755463       13.0948279536
  O        -0.4666819470        8.3680183990        5.4994367953
  H         3.2574211112        8.6318104909        3.1174451479
  H        -1.1422856820        5.7584672071       10.7164269560
  H         0.3786412279        8.5745140764       13.4095923829
  H         4.7783740168       11.4478659527        5.8105953067
  H         1.9312875497       11.4422364333        3.1176151069
  H         3.2257133031        8.5800786340       10.7165271494
  H         1.7047974542        5.7640944007       13.4094234068
  H         0.4103461611        8.6262468659        5.8104932568
  H         2.3295633342        8.5562832824        4.3610914110
  H         1.0483529247       11.4288531280       11.9600414653
  H         1.3065109734        8.6500452808       12.1659420720
  H         2.5877177158        5.7774758441        4.5669904366
  H        -0.2454332648        5.7824545840        4.3614751394
  H         4.1401470974        8.6451653401       11.9600220638
  H         3.8815038818       11.4238743223       12.1655542751
  H        -0.5040692620        8.5611652905        4.5670088816
 Ca         6.7207837672        7.1691645059        2.2017953399
 Ca        -0.2451568091       10.0370689587        9.4768513628
 Ca        -3.0847099374       10.0371665512       14.3249377639
 Ca        -1.7977825693        7.1692656143        7.0503896231
  S        -0.2448776008       10.0372765942        1.7408515753
  S         6.7208003804        7.1692925939        9.4374786033
  S        -1.7974824543        7.1689670301       14.7861750625
  S        -3.0847267678       10.0370362209        7.0895856421
  O         5.0317436662        8.9210227282        2.6508563924
  O         6.3063432284        6.0212160948       10.2745504130
  O        -1.3956551804        8.2853070453       13.8761690268
  O        -2.6702690229       11.1851148547        6.2525186667
  O         0.1563537604       11.1526289060        2.6525262251
  O         7.1353268572        8.3173938898       10.2744466193
  O         3.4797037073        6.0536974112       13.8745020165
  O        -3.4992543659        8.8889333427        6.2526218428
  O         6.4844055587        9.5691101341        0.7912287290
  O         7.8378551932        6.6908052593        8.5993329282
  O        -2.8483260228        7.6372240126       15.7357977573
  O        -4.2017866118       10.5155144486        7.9277339040
  O        -1.2956632138       10.5056506557        0.7912250364
  O         5.6037120754        7.6477522862        8.5993573278
  O         4.9317315240        6.7006757605       15.7358024748
  O        -1.9676334423        9.5585854837        7.9277094310
  O        -3.2953937121        8.3715204391        3.4321864906
  O        -4.5929466843       11.2358686770       11.0275800938
  O         6.9314603711        8.8347717793       13.0948480552
  O         8.2290278866        5.9705056112        5.4994441330
  O         5.3784656832        5.9668446196        3.4324481853
  O        -1.5762546914        8.8382623530       11.0275818115
  O        -1.7423843347       11.2395212833       13.0945862919
  O         5.2123212080        8.3680215021        5.4994421651
  H        -2.4217879999        8.6317390061        3.1172448522
  H         4.5367163298        5.7584666835       10.7164230933
  H         6.0578509872        8.5745867249       13.4097935722
  H        -0.9006273760       11.4478664864        5.8105988727
  H        -3.7474979807       11.4423112342        3.1174012177
  H        -2.4532904416        8.5800789162       10.7165194370
  H         7.3835824737        5.7640213535       13.4096369186
  H         6.0893494529        8.6262456470        5.8105028639
  H        -3.3496892343        8.5562513530        4.3613862787
  H        -4.6306514327       11.4288468692       11.9600389110
  H         6.9857646546        8.6500774625       12.1656448407
  H         8.2667219393        5.7774812259        4.5669928471
  H         5.4338053189        5.7824851769        4.3617505498
  H        -1.5388486803        8.6451712096       11.9600207827
  H        -1.7977340935       11.4238436710       12.1652804499
  H         5.1749259382        8.5611586365        4.5670107848
     192
 i =        3, E =     -2331.4311081848
 Ca         9.2947825723        1.4337825868        2.4514066290
 Ca         2.3287200167        4.3015438269        9.4822978965
 Ca        -0.5107551892        4.3016766582       14.0754577394
 Ca         0.7763081161        1.4339072032        7.0451881477
  S         2.3289890473        4.3011784577        1.8500310411
  S         9.2947716929        1.4338532400        9.4422949802
  S         0.7765091443        1.4334038841       14.6769219821
  S        -0.5107469550        4.3015900800        7.0848066246
  O         7.5867520399        3.1659545954        2.7518003438
  O         8.8743169729        0.2806639632       10.2814463028
  O         1.1973008285        2.5694912688       13.7751584581
  O        -0.0902873008        5.4547865295        6.2456731832
  O         2.7497662455        5.4372720952        2.7517920708
  O         9.7151615064        2.5870763364       10.2814333128
  O         6.0342287681        0.2981714341       13.7751690674
  O        -0.9311407558        3.1483598404        6.2456856726
  O         9.0533370240        3.8188242038        0.8908481173
  O        10.4144660039        0.9510784819        8.5984702272
  O        -0.2693372313        1.9166408261       15.6360386379
  O        -1.6304509064        4.7843397241        7.9286458019
  O         1.2832600514        4.7843813336        0.8907012109
  O         8.1750579071        1.9166254924        8.5985073321
  O         7.5007856514        0.9510382442       15.6361976338
  O         0.6089758258        3.8188415700        7.9286085644
  O        -0.6928804927        2.6576947743        3.4502698418
  O        -2.0175909408        5.5013663895       11.0307427372
  O         9.4768810595        3.0776037735       13.0767559382
  O        10.8016369749        0.2342013278        5.4962787527
  O         7.9244086728        0.2099657319        3.4506024026
  O         0.9962873136        3.1021864245       11.0291576351
  O         0.8596346234        5.5256207925       13.0764228951
  O         7.7877159342        2.6331356121        5.4978623735
  H         0.1855817585        2.9137127939        3.1184053401
  H         7.1188266083        0.0266144026       10.7139394777
  H         8.5983911609        2.8217072758       13.4086412788
  H         1.6652408675        5.7088430400        5.8130734599
  H        -1.2068427170        5.6895804217        3.1182762685
  H         0.1123649109        2.8410212434       10.7137963460
  H         9.9909083166        0.0458794383       13.4087627681
  H         8.6716182256        2.8944087851        5.8132139890
  H        -0.7710832873        2.8298661471        4.3914837243
  H        -2.0606607370        5.7046704160       11.9755637611
  H         9.5550935025        2.9055554779       12.1355192397
  H        10.8446863250        0.0307834006        4.5514774257
  H         8.0026099389        0.0377304765        4.3920109025
  H         1.0389393238        2.8988570181       11.9734475076
  H         0.7814291437        5.6977335724       12.1349923049
  H         7.7450882131        2.8365787571        4.5535909893
 Ca         3.6157817509        1.4337753866        2.4515825093
 Ca         8.0077144534        4.3015348466        9.4822962539
 Ca         5.1682449424        4.3016750275       14.0752923649
 Ca         6.4553007459        1.4338970758        7.0451912582
  S         8.0075211341        4.3020397490        1.8500279154
  S         3.6157710501        1.4338533388        9.4422999396
  S         6.4550382306        1.4342669369       14.6769180821
  S         5.1682533191        4.3015897499        7.0848019174
  O         1.9068805772        3.1655569902        2.7519940389
  O         3.1953102737        0.2806543694       10.2814345623
  O         6.8771759995        2.5698902521       13.7749666669
  O         5.5887192371        5.4547955856        6.2456849466
  O         8.4296358434        5.4376736496        2.7519745964
  O         4.0361681789        2.5870838557       10.2814234531
  O         0.3543591902        0.2977695202       13.7749860576
  O         4.7478526438        3.1483517215        6.2456956592
  O         3.3731541610        3.8191706146        0.8875096406
  O         4.7354771477        0.9510848931        8.5984893599
  O         5.4108532382        1.9162940084       15.6393932696
  O         4.0485380660        4.7843335704        7.9286271047
  O         6.9634409271        4.7840109505        0.8873437150
  O         2.4960474704        1.9166226445        8.5985254831
  O         1.8206088060        0.9514054362       15.6395527691
  O         6.2879863879        3.8188444847        7.9285902875
  O         4.9854518898        2.6575213321        3.4505020683
  O         3.6614119743        5.5013687516       11.0307435861
  O         3.7985522436        3.0777780786       13.0765246572