     296
 i =        1, E =     -2905.0759805089
 Ca         9.2948053395        1.4339274736        2.9090099000
 Ca         2.3286999708        4.3015484793       10.5975433050
 Ca        -0.5103603728        4.3012469521       15.6512377302
 Ca         0.7761725353        1.4338255033        8.1130806605
  S         2.3287700084        4.3015564322        2.8582413059
  S         9.2947512886        1.4338735954       10.4119270852
  S         0.7762713092        1.4338319269       15.6953747878
  S        -0.5107167830        4.3015920912        8.0937156164
  O         7.5915421139        3.1479079223        3.6772014328
  O         8.8713201545        0.2567258414       11.1909813553
  O         1.1880854686        2.5789809210       14.8598685904
  O        -0.0979681586        5.4399920200        7.2486216323
  O         2.7449857621        5.4552655417        3.6772035556
  O         9.7182275594        2.6109878393       11.1910128600
  O         6.0434442248        0.2886618440       14.8599088344
  O        -0.9234422428        3.1631708844        7.2486436385
  O         9.1396948426        3.8190847543        2.0527000928
  O        10.4079101509        0.9584724712        9.5757298631
  O        -0.3399838573        1.9120677847       16.5274848058
  O        -1.6391552304        4.7787009669        8.9106027480
  O         1.1968445337        4.7840906466        2.0526864928
  O         8.1815966070        1.9092621718        9.5757097736
  O         7.5714564171        0.9555466289       16.5275250082
  O         0.6177022152        3.8244687134        8.9106141200
  O        -0.7283194128        2.6302303663        4.4516529979
  O        -2.0116792546        5.5001044748       12.0519499203
  O         9.5143533091        3.1033637819       14.0962831760
  O        10.8079514629        0.2339714898        6.5261615491
  O         7.9597449090        0.2374311255        4.4517137722
  O         0.9902236082        3.1030754082       12.0520597622
  O         0.8219091843        5.4997038582       14.0967271539
  O         7.7816628232        2.6338432346        6.5259782834
  H         0.1353098675        2.8888983669        4.1182643039
  H         7.1021178559        0.0203377142       11.7092116642
  H         8.6441800338        2.8455852996       14.4105903341
  H         1.6730162529        5.7122233545        6.8033054295
  H        -1.1566719920        5.7142549966        4.1184648013
  H         0.1293801492        2.8473410611       11.7093586281
  H         9.9453031701        0.0220960678       14.4106168104
  H         8.6634784242        2.8909375864        6.8032663765
  H        -0.7690447773        2.8241537076        5.3725635543
  H        -2.0581180465        5.6927661411       12.9710242008
  H         9.5547777606        2.9130284370       13.1719336330
  H        10.8392124853        0.0481060272        5.5993366014
  H         8.0006606168        0.0435695040        5.3727717253
  H         1.0366780149        2.9103832983       12.9710617229
  H         0.7820934105        5.6901275209       13.1727175705
  H         7.7501815339        2.8196200417        5.5990549639
 Ca         3.6158041340        1.4339250181        2.9090625969
 Ca         8.0076643420        4.3015280403       10.5975059372
 Ca         5.1681186880        4.3018321441       15.6516439293
 Ca         6.4551703723        1.4338197941        8.1130838660
  S         8.0077610900        4.3016132222        2.8582404724
  S         3.6157531201        1.4338689549       10.4119266178
  S         6.4552556405        1.4338604346       15.6953630145
  S         5.1682826057        4.3015932310        8.0937152848
  O         1.9124062556        3.1479126433        3.6772375250
  O         3.1923283022        0.2567252195       11.1909984617
  O         6.8671256569        2.5790125033       14.8598751565
  O         5.5810318560        5.4399894379        7.2486156345
  O         8.4241189450        5.4552582330        3.6772416655
  O         4.0392326703        2.6109854916       11.1910000357
  O         0.3644231917        0.2886782437       14.8598737306
  O         4.7555650507        3.1631713607        7.2486394142
  O         3.4607182586        3.8190961422        2.0526663388
  O         4.7289060974        0.9584578083        9.5757276954
  O         5.3390063235        1.9120006982       16.5275603571
  O         4.0398483366        4.7787025583        8.9106057881
  O         6.8758195378        4.7840805191        2.0526547457
  O         2.5025942965        1.9092481112        9.5757095694
  O         1.8925157342        0.9555346499       16.5275230923
  O         6.2966981204        3.8244672883        8.9106165192
  O         4.9506092183        2.6301915216        4.4516258575
  O         3.6673143351        5.5000889172       12.0519890242
  O         3.8354129270        3.1032996495       14.0962859698
  O         5.1289523397        0.2339723372        6.5261621044
  O         2.2808145248        0.2374716783        4.4516836663
  O         6.6692346339        3.1030701714       12.0520565855
  O         6.5009079823        5.4996173593       14.0966614983
  O         2.1026601811        2.6338405478        6.5259809137
  H         5.8142145659        2.8888995507        4.1183319110
  H         1.4231204478        0.0203473466       11.7092071161
  H         2.9652245421        2.8456263574       14.4105656679
  H         7.3520167509        5.7122227050        6.8033034402
  H         4.5224215816        5.7142539797        4.1185285249
  H         5.8083826590        2.8473499235       11.7093637250
  H         4.2662699020        0.0221321502       14.4105808697
  H         2.9844753470        2.8909378852        6.8032631440
  H         4.9100028733        2.8241616962        5.3725214309
  H         3.6208739459        5.6927860258       12.9710738359
  H         3.8757432033        2.9130251725       13.1719291236
  H         5.1602114779        0.0481058960        5.5993378823
  H         2.3216111318        0.0435607779        5.3727250724
  H         6.7156650476        2.9103845015       12.9710599142
  H         6.4610944763        5.6901547196       13.1726810716
  H         2.0711843676        2.8196204698        5.5990592390
 Ca         1.0417403824        7.1692974696        2.9091876764
 Ca         5.4340538087       10.0371622631       10.5977438927
 Ca         2.5945706279       10.0368986909       15.6514657880
 Ca         3.8814771487        7.1694020803        8.1133892570
  S         5.4337553176       10.0368818216        2.8582122750
  S         1.0419154792        7.1695655785       10.4118567338
  S         3.8812572395        7.1692619655       15.6954181039
  S         2.5943190155       10.0370937209        8.0936931673
  O        -0.6614802685        8.8832206994        3.6771642835
  O         0.6179857315        5.9920143532       11.1898691794
  O         4.2930875927        8.3143860946       14.8598366437
  O         3.0069161535       11.1754284023        7.2483314562
  O         5.8501285094       11.1907694656        3.6767858815
  O         1.4652604849        8.3467578108       11.1909072348
  O        -2.2095080389        6.0241170720       14.8599757880
  O         2.1814946902        8.8987629870        7.2485437893
  O         0.8868114056        9.5545443121        2.0527870538
  O         2.1550523976        6.6937783893        9.5758875895
  O         2.7649875624        7.6477220436       16.5273880702
  O         1.4658869970       10.5140385224        8.9106894183
  O         4.3018168167       10.5195766200        2.0527826907
  O        -0.0716128929        7.6444490150        9.5759357281
  O        -0.6816306320        6.6913611248       16.5280103380
  O         3.7226022871        9.5597375951        8.9106828178
  O         2.3766989146        8.3656651210        4.4516517399
  O         1.0933975960       11.2355391782       12.0520649586
  O         1.2613866475        8.8387854240       14.0962623470
  O         2.5547878728        5.9692540917        6.5259000173
  O        -0.2930473818        5.9730128739        4.4515280279
  O         4.0952931801        8.8385285500       12.0520575926
  O         3.9272253515       11.2353179024       14.0962858041
  O        -0.4712709027        8.3693030808        6.5259659015
  H         3.2403290126        8.6243462612        4.1182819220
  H        -1.1507828906        5.7558242439       11.7093500648
  H         0.3912282820        8.5810317237       14.4105476682
  H         4.7781386835       11.4476622959        6.8031498581
  H         1.9481779947       11.4497107475        4.1181480997
  H         3.2344365051        8.5827762040       11.7094156042
  H         1.6922500721        5.7575536609       14.4103086723
  H         0.4105336197        8.6263762404        6.8033042871
  H         2.3359884210        8.5595988837        5.3725595007
  H         1.0467573304       11.4281863755       12.9711138210
  H         1.3018063461        8.6484673808       13.1719072379
  H         2.5863812732        5.7835411370        5.5990032621
  H        -0.2525736439        5.7789790367        5.3724345503
  H         4.1416508224        8.6458088034       12.9710619360
  H         3.8867637445       11.4255655258       13.1719183569
  H        -0.5028216059        8.5550587804        5.5990379194
 Ca         6.7207423521        7.1693012560        2.9092273761
 Ca        -0.2448974991       10.0371817447       10.5977044327
 Ca        -3.0850532048       10.0375078331       15.6508396231
 Ca        -1.7975248208        7.1693971560        8.1133839624
  S        -0.2452568039       10.0369421667        2.8582126586
  S         6.7209238877        7.1695645920       10.4118562838
  S        -1.7977370264        7.1693029929       15.6954440441
  S        -3.0846813095       10.0370945592        8.0936956955
  O         5.0173837177        8.8832286958        3.6772065350
  O         6.2970143213        5.9920077060       11.1898656660
  O        -1.3859399888        8.3144925872       14.8600340495
  O        -2.6720822943       11.1754237372        7.2483271076
  O         0.1712625074       11.1907647230        3.6768260998
  O         7.1442869415        8.3467493577       11.1909142095
  O         3.4693913650        6.0241716070       14.8597451354
  O        -3.4974999647        8.8987651382        7.2485412918
  O         6.5658391082        9.5545547511        2.0527524698
  O         7.8340620958        6.6937815290        9.5758841111
  O        -2.9136886632        7.6476599053       16.5280320315
  O        -4.2131096928       10.5140380071        8.9106988597
  O        -1.3772112564       10.5195634517        2.0527466228
  O         5.6073994046        7.6444525735        9.5759352517
  O         4.9976801793        6.6912277171       16.5274368357
  O        -1.9564011946        9.5597386779        8.9106923247
  O        -3.3023732579        8.3656253721        4.4516238273
  O        -4.5855898437       11.2355319143       12.0520705060
  O         6.9404454979        8.8387171252       14.0963388256
  O         8.2337888643        5.9692554027        6.5259014394
  O         5.3860224095        5.9730500378        4.4515060002
  O        -1.5837149987        8.8385157243       12.0520209980
  O        -1.7517698414       11.2352309833       14.0963028170
  O         5.2077261243        8.3693001014        6.5259681026
  H        -2.4387672983        8.6243472693        4.1183508458
  H         4.5281896951        5.7558256786       11.7093597238
  H         6.0702187821        8.5810657040       14.4105765664
  H        -0.9008605233       11.4476622359        6.8031484588
  H        -3.7307283386       11.4497096142        4.1182187479
  H        -2.4445915160        8.5827775206       11.7094053168
  H         7.3711532154        5.7575708479       14.4102406826
  H         6.0895298463        8.6263764055        6.8033007021
  H        -3.3429627298        8.5596078554        5.3725158171
  H        -4.6322584988       11.4281898769       12.9711175904
  H         6.9807953921        8.6484929257       13.1719663532
  H         8.2653801387        5.7835406902        5.5990052986
  H         5.4263816177        5.7789705643        5.3723977952
  H        -1.5373557673        8.6458254730       12.9710148726
  H        -1.7922543012       11.4255631850       13.1719535022
  H         5.1761815045        8.5550590459        5.5990416820
  O         9.6273886347        2.4395829696       36.4610190600
  H         8.7080853043        2.1961789959       36.7072527892
  H         9.6401620636        3.3768947645       36.7633251346
  O         7.3720019701        1.2665891430       33.0103179641
  H         8.1561347038        1.1341009995       33.5785039828
  H         6.8218046621        1.5083474883       33.7725766973
  O         1.7868706612        5.2228358324       26.3353090414
  H         2.4878986304        5.0657412256       26.9691417722
  H         1.0105984279        5.3956450954       26.8700058271
  O         6.9726177478        7.7257693645       30.6317319938
  H         7.8495204426        7.7369847075       31.0172875788
  H         6.4610364118        8.2814998555       31.2219233441
  O         6.8684035128        1.7176452745       41.0969048335
  H         6.0705478517        2.1305221130       40.7297349625
  H         7.5325133176        2.1824645017       40.5642697107
  O         7.7526930607        4.0981942872       21.8839682729
  H         7.4039768377        3.2091716471       21.9606254129
  H         6.9860335904        4.6398733803       21.6933645274
  O         0.8111457297        9.8022460211       40.8502269944
  H         1.5124457666       10.0995381419       40.2716347921
  H         0.5626191901       10.6252236926       41.2756700361
  O         5.5361918411        5.8290387559       28.9835975576
  H         5.2862726768        6.1525529795       28.1170022945
  H         5.1553532642        4.9508860456       29.0295768610
  O         3.7840109369        6.2949419805       20.9346188240
  H         4.6306729359        6.4600371713       21.3509132853
  H         3.1551626264        6.3162543797       21.6569875338
  O         3.7061178982        7.6102335581       32.0751868785
  H         4.4069666417        7.6183287386       32.7532082524
  H         3.0153628836        7.6010073259       32.7619920360
  O         3.7014108598        7.1389481880       38.3168196483
  H         3.8750824048        6.4866590493       39.0095810943
  H         3.1430387179        7.7036365244       38.8772495746
  O         2.5200843502        8.6500350005       20.9902749215
  H         1.8245490896        8.9184110459       21.5915735598
  H         2.9625603480        9.4665600690       20.7550766133
  O        -2.1692246518        7.1480590744       38.9236139581
  H        -1.8750481443        6.5341756487       39.5971020958
  H        -1.4169073544        7.3818470394       38.3587919279
  O        -2.5802352976       10.9506319360       23.5882288129
  H        -1.7917068005       11.2971694136       24.0077786610
  H        -2.9032565257       10.2934117759       24.2057333339
  O         5.3587417039        0.5538716069       35.8702526790
  H         4.8770353611        0.7517265991       36.6744243965
  H         6.1293055473        0.1246477405       36.2569752436
  O        -2.5710447215        8.3647733732       34.4838696502
  H        -3.4351753390        8.5348301434       34.8977425342
  H        -2.6697180133        8.0085961513       33.6107697549
  O         3.8948066919        3.4344308283       35.5242728163
  H         4.4130647757        3.3076340000       36.3314883838
  H         3.0873953541        2.9603956955       35.7309862877
  O        -1.1308184848        5.6293590482       31.9404117269
  H        -0.7260355929        4.8178379736       32.3433762528
  H        -2.0145980302        5.5403405425       32.3910780557
  O         3.0240126938        1.8699213134       22.2400882792
  H         2.3305946220        2.5307921472       22.2430885081
  H         3.4286158862        1.9495941522       21.3755450478
  O         4.4336083308       10.8910119313       25.5842839073
  H         5.2838903739       10.5580006959       25.8736448223
  H         3.8574817914       10.7704969342       26.3400720741
  N         9.9949412589        2.6498368408       25.5121033429
  H        -0.3943728045        2.6441353092       25.2012388368
  H         9.6307153862        3.5796445922       25.3178829670
  H         9.4907125111        2.0034898559       24.9095602516
  N         5.6506368157        1.1677675721       26.6005258674
  H         6.4797376146        0.5786032280       26.5814744830
  H         5.9722056983        2.1310370216       26.5408621682
  H         5.1371171775        0.9756231977       25.7435446823
  N         1.1566661603        3.9398314930       39.5359261222
  H         0.7127591004        4.8558425706       39.5273584110
  H         0.4576514327        3.2875345424       39.8773264377
  H         1.2645819234        3.6932678449       38.5435085518
  N        -4.7246356699       10.6454104999       41.2373900153
  H        -4.1583254719       11.1721219693       41.9029042941
  H         6.7171282122        9.6281507257       41.3217362775
  H        -4.3656293533       10.8440052392       40.3063321187
  H         5.6520094429       10.9319460101       41.2362723638
  N         1.1658199348        3.0696238532       29.5203482862
  H         0.2813337070        3.2699999409       29.9932458465
  H         1.5036122466        2.1464518134       29.8002137549
  H         1.8586465861        3.7779767568       29.7725663582
  H         1.0185665841        3.0857645157       28.5096903818
  N        -1.3350481522        7.9233946868       21.4238866246
  H        -0.4574357939        8.1742439248       21.8808214213
  H        -1.4543002867        6.9100530387       21.4515514080
  H        -1.3161267297        8.2374364524       20.4528838693
  H        -2.1104495483        8.3719934778       21.9132234792
  N         8.9603201388        5.2874998343       28.6377731958
  H        -1.7321766839        5.8254500427       29.1943862094
  H        -1.8916858653        4.7626350728       27.9233466473
  H         8.3012178608        5.9236763673       28.1874684970
  H         8.4558112993        4.6398108190       29.2445453689
  P        -1.5074095393        8.2146268720       26.6672076812
  O        -0.8471706810        9.0617472394       25.5906384694
  O        -0.8767088249        8.5183404056       28.0392712343
  O        -1.3379501534        6.7196887833       26.3360156597
  O        -3.0408328711        8.5557104932       26.7205261336
  H         7.3720433212        8.7677130963       26.7536313868
  P         6.7446636573        5.3889111204       40.9911967717
  O         5.2838884769        5.0486333240       41.2429784827
  O         7.6625055927        4.7202582839       42.0293842329
  O         6.9549503909        6.9134333056       41.1298703509
  O         7.1289702671        4.7976941855       39.5947522269
  H         7.3506016026        4.4682633983       38.7128157439
     296
 i =        2, E =     -2906.8300697705
 Ca         9.2948488263        1.4339613351        2.9525746202
 Ca         2.3286096930        4.3015337776       10.8046070128
 Ca        -0.5099165198        4.3007788826       15.6470984529
 Ca         0.7760710864        1.4337876997        8.1975289051
  S         2.3287427386        4.3015490000        2.8659734033
  S         9.2947525991        1.4338841743       10.4057360586
  S         0.7762860262        1.4338004995       15.6973299267
  S        -0.5107038528        4.3016038158        8.1032035452
  O         7.5877842432        3.1427387283        3.6771795072
  O         8.8568039394        0.2230584294       11.1267118664
  O         1.1895770032        2.5793455665       14.8603542394
  O        -0.0953836851        5.4310579100        7.2429053742
  O         2.7487411764        5.4604449642        3.6771878151
  O         9.7328033873        2.6446432475       11.1267683947
  O         6.0419739279        0.2882036316       14.8604492154
  O        -0.9259602708        3.1720937921        7.2429576659
  O         9.1447373446        3.8158834564        2.0670399661
  O        10.4054122769        0.9576654221        9.5665702651
  O        -0.3410492602        1.9150717685       16.5280901360
  O        -1.6546265256        4.7779911190        8.9036138984
  O         1.1918003063        4.7872855946        2.0670235125
  O         8.1840966298        1.9100836151        9.5665394241
  O         7.5724705003        0.9524079108       16.5281871487
  O         0.6331868896        3.8251965433        8.9036299227
  O        -0.7269415719        2.6306275537        4.4670559556
  O        -2.0017854820        5.5029430718       12.0769160402
  O         9.5134072209        3.1025919590       14.0965988613
  O        10.8128480052        0.2347773683        6.5440531590
  O         7.9582866023        0.2369690045        4.4672062665
  O         0.9803178858        3.1002399297       12.0771804520
  O         0.8225923544        5.5004224046       14.0975057757
  O         7.7768026528        2.6330602050        6.5439169145
  H         0.1342955556        2.8896096638        4.1216454559
  H         7.1002755241        0.0193160745       11.6930430619
  H         8.6417914373        2.8442189018       14.4118031503
  H         1.6673570452        5.7104999578        6.7925785486
  H        -1.1555968816        5.7135487731        4.1219230092
  H         0.1312262096        2.8482982746       11.6934849551
  H         9.9476476375        0.0234140091       14.4118322931
  H         8.6691638468        2.8926463555        6.7926820133
  H        -0.7687022481        2.8241438294        5.3903784447
  H        -2.0604941664        5.6960615867       12.9933788045
  H         9.5566592790        2.9131191150       13.1686263653
  H        10.8384555995        0.0480711822        5.6138948688
  H         8.0004146478        0.0435798289        5.3907881465
  H         1.0391074993        2.9070689818       12.9934922784
  H         0.7805172530        5.6900229152       13.1701344182
  H         7.7509158974        2.8196481892        5.6135896071
 Ca         3.6158467939        1.4339578677        2.9526226672
 Ca         8.0075231762        4.3014853247       10.8045072953
 Ca         5.1678637002        4.3021363288       15.6480419396
 Ca         6.4550645026        1.4337761814        8.1975374701
  S         8.0077924867        4.3016298248        2.8659724435
  S         3.6157575866        1.4338769562       10.4057343437
  S         6.4552631499        1.4338605502       15.6973042351
  S         5.1682942646        4.3016067831        8.1031995004
  O         1.9085253208        3.1427382335        3.6772173345
  O         3.1778211503        0.2230525175       11.1267373560
  O         6.8686740159        2.5794198125       14.8603767488
  O         5.5836191900        5.4310547038        7.2428940010
  O         8.4279968280        5.4604420444        3.6772284329
  O         4.0538140976        2.6446339506       11.1267498447
  O         0.3629203270        0.2882393258       14.8603730222
  O         4.7530540437        3.1720922672        7.2429507012
  O         3.4657436067        3.8158826803        2.0670525665
  O         4.7264042968        0.9576357546        9.5665652187
  O         5.3379363329        1.9149223996       16.5282528716
  O         4.0243776161        4.7779937646        8.9036133695
  O         6.8707916439        4.7872873996        2.0670392746
  O         2.5050915539        1.9100544044        9.5665388873
  O         1.8935973431        0.9523767782       16.5281678606
  O         6.3121797354        3.8251928071        8.9036272250
  O         4.9519078137        2.6305619415        4.4670453495
  O         3.6771984701        5.5029069548       12.0770029837
  O         3.8345536468        3.1024423740       14.0966029352
  O         5.1338490741        0.2347791671        6.5440548906
  O         2.2794346641        0.2370375839        4.4671900225
  O         6.6593451193        3.1002273867       12.0771730938
  O         6.5015817371        5.5002176204       14.0973503615
  O         2.0977979140        2.6330542997        6.5439232370
  H         5.8131020956        2.8896045173        4.1217387997
  H         1.4212822141        0.0193390470       11.6930307755
  H         2.9629025564        2.8443164098       14.4117468702
  H         7.3463568962        5.7104991198        6.7925759547
  H         4.5235937891        5.7135547499        4.1220102728
  H         5.8102331460        2.8483192929       11.6934976922
  H         4.2685651932        0.0234942366       14.4117568030
  H         2.9901579122        2.8926465741        6.7926765836
  H         4.9103517659        2.8241555388        5.3903454008
  H         3.6184873397        5.6961082708       12.9934911610
  H         3.8775819752        2.9131138817       13.1686122254
  H         5.1594544122        0.0480708065        5.6138977808
  H         2.3213571179        0.0435671494        5.3907469122
  H         6.7180764734        2.9070728041       12.9934889502
  H         6.4595166162        5.6900861399       13.1700472822
  H         2.0719205837        2.8196486113        5.6135992132
 Ca         1.0417183369        7.1692946054        2.9528235130
 Ca         5.4344518603       10.0373888015       10.8051871024
 Ca         2.5949231718       10.0366798966       15.6476019214
 Ca         3.8817700889        7.1695278076        8.1981221170
  S         5.4337032975       10.0368223578        2.8659697826
  S         1.0419683840        7.1696837569       10.4057238292
  S         3.8812223902        7.1692307966       15.6974340579
  S         2.5943163938       10.0371339035        8.1031270932
  O        -0.6652702918        8.8779626797        3.6771195431
  O         0.6031800456        5.9584032417       11.1252898138
  O         4.2945606862        8.3147062991       14.8602650890
  O         3.0093071186       11.1664714697        7.2423266831
  O         5.8539116211       11.1959438750        3.6766536225
  O         1.4797687299        8.3807069541       11.1265285505
  O        -2.2109487837        6.0236703591       14.8606553378
  O         2.1788187799        8.9078466410        7.2426934099
  O         0.8919019442        9.5514135389        2.0671927622
  O         2.1525873002        6.6928371742        9.5669053292
  O         2.7638367393        7.6510082723       16.5278442053
  O         1.4504415374       10.5132665630        8.9037543426
  O         4.2967745075       10.5228417664        2.0671892826
  O        -0.0692997657        7.6449323213        9.5669395564
  O        -0.6807596189        6.6886768324       16.5292823172
  O         3.7379490140        9.5602693484        8.9037268901
  O         2.3780716120        8.3660570915        4.4670593905
  O         1.1034124132       11.2384003876       12.0772244066
  O         1.2604528304        8.8379895786       14.0965494941
  O         2.5596409339        5.9700156860        6.5438616735
  O        -0.2944164980        5.9726411893        4.4668971549
  O         4.0854499851        8.8357035907       12.0771850435
  O         3.9281757731       11.2361805601       14.0966168178
  O        -0.4760796992        8.3685385748        6.5439015738
  H         3.2393091725        8.6250605248        4.1216766981
  H        -1.1525703277        5.7548708274       11.6934843568
  H         0.3888731910        8.5796701292       14.4117061927
  H         4.7725097240       11.4459628509        6.7925282867
  H         1.9491354025       11.4490020511        4.1214220098
  H         3.2363278153        8.5837228528       11.6936203173
  H         1.6945660332        5.7588814352       14.4112937177
  H         0.4162588235        8.6280760037        6.7927644970
  H         2.3363382529        8.5595916749        5.3903764832
  H         1.0440890238       11.4314301659       12.9936534485
  H         1.3036902222        8.6485538313       13.1685663746
  H         2.5855250874        5.7834792526        5.6135966912
  H        -0.2529644667        5.7789773431        5.3902171307
  H         4.1440143176        8.6424706450       12.9935034880
  H         3.8848823123       11.4254631558       13.1686067442
  H        -0.5021213915        8.5550763645        5.6135662370
 Ca         6.7207204457        7.1692995678        2.9528564630
 Ca        -0.2444328758       10.0374351764       10.8050826806
 Ca        -3.0854863863       10.0381052950       15.6461657716
 Ca        -1.7972363657        7.1695176323        8.1981100949
  S        -0.2452524661       10.0369079734        2.8659709940
  S         6.7209874011        7.1696793309       10.4057222944
  S        -1.7977547746        7.1693212482       15.6975067192
  S        -3.0846849501       10.0371365815        8.1031301368
  O         5.0134722496        8.8779671243        3.6771659735
  O         6.2822451831        5.9583893243       11.1252858674
  O        -1.3845106875        8.3149474437       14.8607308136
  O        -2.6696864869       11.1664630763        7.2423182183
  O         0.1751681886       11.1959443410        3.6766973269
  O         7.1588290940        8.3806894381       11.1265384482
  O         3.4678145667        6.0237893801       14.8601189333
  O        -3.5001704994        8.9078501761        7.2426892765
  O         6.5709145889        9.5514107470        2.0672032588
  O         7.8316113509        6.6928443340        9.5668986166
  O        -2.9144207548        7.6508625902       16.5293300520
  O        -4.2285555006       10.5132633264        8.9037694614