384
Lattice="25.501 0.0 0.0 0.0 23.969 0.0 0.0 0.0 21.9014832" Properties=species:S:1:pos:R:3:spacegroup_kinds:I:1:tags:I:1:forces:R:3 stress="0.0029808654362647796 1.3840558680226508e-05 -9.632838221583653e-10 1.3840558680226508e-05 0.0029472114944428343 1.6346336419495688e-09 -9.632838221583653e-10 1.6346336419495688e-09 0.001717876326150855" energy=-2982.0913753746454 pbc="T T F"
S        3.24900063      12.19926616       1.35483034        0        1       0.00000043       0.00000082      -0.00000042
S        9.76473123       5.78362927       3.65751994        0        1      -0.00000219       0.00000050       0.00000087
S        9.50150675      23.75420386       1.35484018        0        1      -0.00000108      -0.00000032      -0.00000010
S        2.98574061       6.20084751       3.65754528        0        1       0.00000132      -0.00000120       0.00000102
S        5.43590540       9.07411062       1.50118932        1        1      -0.00000140      -0.00000006       0.00000141
S       11.50330708       2.64153523       5.52252025        1        1      -0.00000247      -0.00000028       0.00000092
S        7.31457459       2.91035668       1.50119262        1        1       0.00000013       0.00000198       0.00000074
S        1.24720355       9.34297528       5.52250076        1        1       0.00000300       0.00000134       0.00000101
S        1.22034354       2.71224712       2.12485632        2        1      -0.00000166       0.00000015      -0.00000164
S        7.37597580       9.10368157       5.63503942        2        1      -0.00000256       0.00000271      -0.00000402
S       11.53019618       9.27223420       2.12488234        2        1       0.00000112      -0.00000076      -0.00000465
S        5.37452873       2.88078874       5.63505239        2        1       0.00000004      -0.00000208      -0.00000199
Ca       6.37527648      23.96898988       3.72385933        3        1      -0.00000022       0.00000062      -0.00000559
Ca      25.50096651       5.99218133       3.44912345        3        1       0.00000045      -0.00000629       0.00000242
Ca       1.83521018       9.03153677       2.45519762        4        1       0.00000051       0.00000065      -0.00000568
Ca       8.24452496       3.85736783       6.26880145        4        1       0.00000221      -0.00000067      -0.00000126
Ca      10.91527475       2.95292669       2.45517900        4        1      -0.00000035       0.00000239       0.00000353
Ca       4.50597473       8.12712847       6.26879997        4        1       0.00000300       0.00000233       0.00000645
Ca       4.56500717       3.01858273       2.84130039        5        1      -0.00000138      -0.00000445       0.00000473
Ca      10.97464055       8.65605065       5.56983274        5        1      -0.00000064       0.00000006       0.00000051
Ca       8.18547999       8.96589155       2.84127883        5        1       0.00000092      -0.00000472      -0.00000248
Ca       1.77585897       3.32845086       5.56987065        5        1      -0.00000011       0.00000189      -0.00000038
Ca       0.00000131       0.00000159       4.35534633        6        1      -0.00000131      -0.00000051       0.00000187
Ca       6.37523872       5.99223741       3.61308070        6        1       0.00000609       0.00000155       0.00000003
O        3.91327999       0.55377578       2.65250993        7        1      -0.00000161      -0.00000129       0.00000036
O       10.68168596       6.54199302       4.52692377        7        1      -0.00000123      -0.00000190      -0.00000187
O        8.83720099      11.43069842       2.65249729        7        1      -0.00000456      -0.00000274       0.00000020
O        2.06878218       5.44249667       4.52695624        7        1       0.00000018      -0.00000167       0.00000059
O        2.15276048       2.10836392       7.90464055        8        1      -0.00000008       0.00000112      -0.00000059
O        8.65832399       6.62435838       3.16480739        8        1       0.00000103       0.00000102       0.00000091
O       10.59767773       9.87605032       7.90464122        8        1       0.00000080      -0.00000160      -0.00000048
O        4.09214796       5.36011053       3.16484377        8        1      -0.00000270      -0.00000302      -0.00000036
O        2.22653318      11.15217353       1.49288240        9        1      -0.00000011      -0.00000001       0.00000394
O        9.20269942       4.63511024       4.36792369        9        1       0.00000108       0.00000204       0.00000130
O       10.52399458       0.83227749       1.49291145        9        1       0.00000208      -0.00000261       0.00000009
O        3.54777549       7.34937344       4.36793535        9        1      -0.00000701       0.00000032      -0.00000242
O        3.05203733      14.50881071       8.62800689       10        1       0.00000059       0.00000086      -0.00000205
O       10.58503275       5.28834079       2.52138547       10        1      -0.00000086      -0.00000037       0.00000540
O        9.69844595      21.44454148       8.62800726       10        1       0.00000054      -0.00000140      -0.00000098
O        2.16544248       6.69612150       2.52140166       10        1       0.00000320       0.00000447       0.00000448
O        4.14219563       9.10196824       2.29059596       11        1      -0.00000101       0.00000008      -0.00000075
O       10.49606033       2.92937475       6.52465344       11        1      -0.00000188      -0.00000100       0.00000190
O        8.60829300       2.88249276       2.29058655       11        1      -0.00000037      -0.00000072      -0.00000014
O        2.25444194       9.05512390       6.52463883       11        1      -0.00000248      -0.00000194       0.00000318
O        6.18330357       7.78439172       1.91513099       12        1       0.00000066       0.00000023      -0.00000223
O       12.62932210       1.84258999       6.05954004       12        1       0.00000176       0.00000013       0.00000047
O        6.56718445       4.20007772       1.91514224       12        1      -0.00000046       0.00000290      -0.00000436
O        0.12118445      10.14191603       6.05951913       12        1      -0.00000134      -0.00000126       0.00000729
O        6.29975517      10.18787281       2.13776569       13        1       0.00000418      -0.00000141      -0.00000106
O       12.07876034       3.84882743       4.87944629       13        1       0.00000137      -0.00000003       0.00000224
O        6.45072696       1.79659807       2.13777673       13        1      -0.00000078      -0.00000047      -0.00000129
O        0.67175534       8.13569363       4.87940320       13        1       0.00000220      -0.00000078       0.00000251
O        5.71594710       6.08213518       5.96952555       14        1       0.00000430      -0.00000032      -0.00000138
O       10.86647127       1.79483876       4.45191974       14        1      -0.00000124      -0.00000281      -0.00000196
O        7.03453056       5.90234629       5.96953042       14        1      -0.00000668       0.00000244      -0.00000252
O        1.88404592      10.18968267       4.45191172       14        1       0.00000528       0.00000625       0.00000036
O        2.26219176       2.98350557       3.21708199       15        1       0.00000070       0.00000080      -0.00000020
O        8.69127545       8.52722726       5.91410289       15        1      -0.00000325       0.00000227       0.00000229
O       10.48828676       9.00097371       3.21705166       15        1       0.00000341       0.00000377       0.00000136
O        4.05922835       3.45723621       5.91412432       15        1       0.00000151       0.00000319      -0.00000021
O        0.31126171       3.96287705       2.11040746       16        1       0.00000184       0.00000261       0.00000110
O        6.52939881       9.22418834       6.81030829       16        1       0.00000269      -0.00000424      -0.00000067
O       12.43925229       8.02158628       2.11045584       16        1      -0.00000115      -0.00000158       0.00000093
O        6.22111380       2.76028565       6.81031623       16        1      -0.00000498      -0.00000166      -0.00000126
O        0.30069748       1.64898618       2.72582200       17        1      -0.00000406      -0.00000028      -0.00000158
O        6.66267398       8.24991689       4.62550303       17        1      -0.00000024      -0.00000146      -0.00000338
O       12.44982830      10.33546519       2.72591809       17        1       0.00000018      -0.00000207      -0.00000060
O        6.08782182       3.73455699       4.62551269       17        1      -0.00000395       0.00000274      -0.00000342
O        1.55131947       5.04273955       7.02882611       18        1      -0.00000016       0.00000346       0.00000069
O        7.60872174      10.41005632       4.94618477       18        1       0.00000147       0.00000285      -0.00000070
O       11.19930277       6.94170701       7.02870623       18        1       0.00000282      -0.00000005      -0.00000375
O        5.14178417       1.57441318       4.94619766       18        1       0.00000189      -0.00000491       0.00000236
O        4.18096119       3.87514122       0.64904804       19        1       0.00000446       0.00000200      -0.00000330
O       10.48994629      11.06513597       5.10190060       19        1       0.00000239       0.00000320      -0.00000122
O        8.56952736       8.10933313       0.64902604       19        1      -0.00000160       0.00000500       0.00000016
O        2.26054147       0.91937062       5.10192767       19        1       0.00000032       0.00000277       0.00000092
O        3.22398667       6.78271127       7.72503737       20        1       0.00000156      -0.00000076       0.00000115
O        8.12877680       1.71009681       4.68703310       20        1       0.00000186      -0.00000086       0.00000252
O        9.52655628       5.20182144       7.72498032       20        1      -0.00000268       0.00000153       0.00000284
O        4.62173378      10.27438681       4.68702601       20        1      -0.00000270       0.00000115       0.00000129
H        5.04119098       4.33406435       0.69361287       21        1       0.00000156      -0.00000253      -0.00000135
H       10.11171346      23.53072202       5.84922095       21        1      -0.00000104       0.00000384      -0.00000050
H        7.70929828       7.65040877       0.69359463       21        1       0.00000316      -0.00000022      -0.00000078
H        2.63876558      12.42275834       5.84922241       21        1       0.00000316      -0.00000434      -0.00000060
H        2.61216939       6.01637036       7.44329609       22        1       0.00000352      -0.00000077      -0.00000061
H        9.82496581      11.15060021       4.39290715       22        1       0.00000122      -0.00000417      -0.00000067
H       10.13839302       5.96813179       7.44320522       22        1      -0.00000383       0.00000002       0.00000308
H        2.92552823       0.83389665       4.39294181       22        1      -0.00000041       0.00000155      -0.00000061
H        3.50268184       4.56209781       0.62169102       23        1      -0.00000719       0.00000363       0.00000207
H        9.06300021       1.43051954       4.72220755       23        1      -0.00000191       0.00000462       0.00000013
H        9.24780711       7.42237616       0.62168281       23        1      -0.00000161       0.00000004       0.00000088
H        3.68753727      22.53847522       4.72217300       23        1       0.00000190      -0.00000443       0.00000049
H        2.58708169       7.39096769       8.12127374       24        1      -0.00000073       0.00000063      -0.00000189
H        8.14282606       2.21950805       3.83600547       24        1       0.00000141      -0.00000335      -0.00000256
H       10.16345692       4.59355686       8.12121193       24        1       0.00000011      -0.00000059      -0.00000117
H        4.60767879       9.76496904       3.83600234       24        1      -0.00000086       0.00000216      -0.00000306
S        3.24907263       0.21481773       1.35480174        0        1       0.00000092       0.00000133      -0.00000272
S        9.76466099      17.76811987       3.65736175        0        1       0.00000044       0.00000051      -0.00000034
S        9.50144275      11.76963266       1.35479864        0        1       0.00000049       0.00000120       0.00000266
S        2.98581008      18.18536506       3.65740000        0        1       0.00000287       0.00000090       0.00000226
S        5.43589990      21.05867774       1.50113585        1        1      -0.00000081      -0.00000120       0.00000272
S       11.50329715      14.62605710       5.52244155        1        1      -0.00000191       0.00000195       0.00000229
S        7.31458314      14.89480090       1.50113082        1        1       0.00000235       0.00000107       0.00000059
S        1.24721001      21.32746766       5.52243464        1        1       0.00000202       0.00000073      -0.00000006
S        1.22030582      14.69673802       2.12487682        2        1      -0.00000328      -0.00000012      -0.00000260
S        7.37600885      21.08813351       5.63500336        2        1      -0.00000221       0.00000135      -0.00000256
S       11.53022045      21.25675445       2.12489481        2        1       0.00000103      -0.00000124      -0.00000192
S        5.37450126      14.86533072       5.63500943        2        1       0.00000253      -0.00000230      -0.00000181
Ca       6.37523256      11.98448455       3.72384877        3        1       0.00000200      -0.00000132      -0.00000062
Ca       0.00002108      17.97677635       3.44912149        3        1      -0.00000472      -0.00000051       0.00000160
Ca       1.83519839      21.01612254       2.45501844        4        1       0.00000218      -0.00000007       0.00000177
Ca       8.24453283      15.84188059       6.26873472        4        1       0.00000007       0.00000075       0.00000140
Ca      10.91529352      14.93733606       2.45497519        4        1       0.00000195       0.00000081      -0.00000542
Ca       4.50596105      20.11161780       6.26874036        4        1       0.00000135      -0.00000059       0.00000513
Ca       4.56502002      15.00306314       2.84121885        5        1      -0.00000125       0.00000339       0.00000382
Ca      10.97465353      20.64049651       5.56977890        5        1      -0.00000255       0.00000274      -0.00000452
Ca       8.18547141      20.95042278       2.84120088        5        1       0.00000035       0.00000174      -0.00000023
Ca       1.77585290      15.31299432       5.56980804        5        1      -0.00000513       0.00000369       0.00000128
Ca       0.00000171      11.98449805       4.35541045        6        1      -0.00000110      -0.00000123      -0.00000519
Ca       6.37524921      17.97673836       3.61300357        6        1       0.00000093       0.00000062      -0.00000231
O        3.91328409      12.53824522       2.65249177        7        1       0.00000019      -0.00000123      -0.00000009
O       10.68160375      18.52651077       4.52675436        7        1       0.00000098      -0.00000275       0.00000450
O        8.83719653      23.41524292       2.65249395        7        1      -0.00000196      -0.00000195       0.00000098
O        2.06886546      17.42698605       4.52680158        7        1       0.00000066      -0.00000169      -0.00000094
O        2.15271843      14.09318211       7.90470765        8        1       0.00000025       0.00000141      -0.00000038
O        8.65830650      18.60886111       3.16454807        8        1      -0.00000069      -0.00000500       0.00000135
O       10.59775853      21.86020691       7.90472180        8        1       0.00000035      -0.00000090      -0.00000025
O        4.09217721      17.34462395       3.16461328        8        1      -0.00000291      -0.00000225      -0.00000094
O        2.22654891      23.13676747       1.49279393        9        1       0.00000086       0.00000244       0.00000481
O        9.20254803      16.61968276       4.36782872        9        1       0.00000190       0.00000801       0.00000036
O       10.52397804      12.81667224       1.49281141        9        1       0.00000272       0.00000147       0.00000004
O        3.54790347      19.33382534       4.36784532        9        1      -0.00000319       0.00000074      -0.00000237
O        3.05215942       2.52386859       8.62791289       10        1       0.00000026       0.00000091      -0.00000159
O       10.58500033      17.27272882       2.52130298       10        1       0.00000057      -0.00000250       0.00000094
O        9.69827256       9.46050919       8.62788442       10        1       0.00000187      -0.00000192      -0.00000061
O        2.16547747      18.68072378       2.52132097       10        1       0.00000202       0.00000023       0.00000588
O        4.14218288      21.08652865       2.29053326       11        1      -0.00000057       0.00000132      -0.00000025
O       10.49602190      14.91383467       6.52456653       11        1      -0.00000097      -0.00000589       0.00000579
O        8.60830986      14.86693583       2.29051402       11        1       0.00000186      -0.00000126      -0.00000008
O        2.25447123      21.03967526       6.52456929       11        1       0.00000162      -0.00000001       0.00000017
O        6.18328859      19.76895028       1.91505736       12        1      -0.00000005      -0.00000323      -0.00000369
O       12.62929148      13.82707341       6.05945447       12        1      -0.00000118      -0.00000010       0.00000317
O        6.56720556      16.18452987       1.91506798       12        1      -0.00000236      -0.00000054      -0.00000384
O        0.12120890      22.12644522       6.05944250       12        1      -0.00000441       0.00000038       0.00000036
O        6.29974761      22.17242474       2.13774104       13        1       0.00000155       0.00000117      -0.00000020
O       12.07877577      15.83339223       4.87947925       13        1       0.00000297       0.00000085      -0.00000437
O        6.45073562      13.78105548       2.13773869       13        1      -0.00000188       0.00000195      -0.00000271
O        0.67173956      20.12014493       4.87944037       13        1      -0.00000095       0.00000029       0.00000439
O        5.71594197      18.06663937       5.96946920       14        1       0.00000531       0.00000034      -0.00000047
O       10.86648383      13.77942281       4.45178380       14        1       0.00000094      -0.00000406       0.00000251
O        7.03452047      17.88684602       5.96948571       14        1      -0.00000669       0.00000135      -0.00000108
O        1.88403552      22.17411468       4.45179317       14        1       0.00000265       0.00000368      -0.00000152
O        2.26222633      14.96798208       3.21703993       15        1      -0.00000283       0.00000013      -0.00000094
O        8.69129662      20.51167531       5.91410934       15        1      -0.00000081      -0.00000168       0.00000204
O       10.48825819      20.98551364       3.21702013       15        1      -0.00000124       0.00000300       0.00000297
O        4.05921228      15.44178307       5.91412088       15        1       0.00000269       0.00000078       0.00000047
O        0.31126819      15.94739846       2.11044982       16        1       0.00000261       0.00000388       0.00000139
O        6.52940048      21.20863541       6.81025094       16        1       0.00000479       0.00000043      -0.00000180
O       12.43923443      20.00607748       2.11048075       16        1       0.00000148      -0.00000125      -0.00000086
O        6.22111340      14.74482563       6.81025425       16        1      -0.00000093       0.00000150      -0.00000024
O        0.30066412      13.63352087       2.72592441       17        1      -0.00000177      -0.00000279       0.00000011
O        6.66273504      20.23438307       4.62543774       17        1       0.00000080      -0.00000180      -0.00000386
O       12.44985768      22.31994668       2.72599157       17        1       0.00000336      -0.00000157      -0.00000289
O        6.08777076      15.71908966       4.62544767       17        1      -0.00000092      -0.00000041      -0.00000464
O        1.55099838      17.02747189       7.02849252       18        1      -0.00000023       0.00000124      -0.00000284
O        7.60877093      22.39451382       4.94616239       18        1      -0.00000087       0.00000331       0.00000280
O       11.19962226      18.92594950       7.02836433       18        1       0.00000357      -0.00000291      -0.00000030
O        5.14174141      13.55895326       4.94616205       18        1      -0.00000170      -0.00000239       0.00000073
O        4.18102952      15.85948432       0.64890381       19        1       0.00000499      -0.00000070      -0.00000154
O       10.48994788      23.04958111       5.10196024       19        1       0.00000172       0.00000139      -0.00000105
O        8.56944345      20.09404701       0.64886545       19        1      -0.00000203       0.00000040      -0.00000220
O        2.26054674      12.90391813       5.10196594       19        1      -0.00000022      -0.00000071      -0.00000175
O        3.22388499      18.76717454       7.72489965       20        1       0.00000351      -0.00000169       0.00000159
O        8.12876437      13.69461298       4.68698389       20        1       0.00000179      -0.00000144       0.00000103
O        9.52663702      17.18635900       7.72485353       20        1      -0.00000112       0.00000052       0.00000260
O        4.62174976      22.25886750       4.68699184       20        1      -0.00000178       0.00000119       0.00000151
H        5.04123679      16.31844866       0.69348811       21        1      -0.00000081      -0.00000101      -0.00000127
H       10.11168947      11.54626728       5.84915635       21        1      -0.00000113       0.00000372       0.00000090
H        7.70924591      19.63506478       0.69346113       21        1      -0.00000108       0.00000243      -0.00000095
H        2.63877334       0.43821486       5.84918037       21        1       0.00000163      -0.00000411      -0.00000192
H        2.61196949      18.00094831       7.44305269       22        1       0.00000231       0.00000091       0.00000275
H        9.82495073      23.13505281       4.39298580       22        1       0.00000045      -0.00000355      -0.00000070
H       10.13858760      17.95253962       7.44296227       22        1      -0.00000606       0.00000218      -0.00000008
H        2.92554517      12.81843865       4.39299381       22        1       0.00000035       0.00000153      -0.00000040
H        3.50271995      16.54640592       0.62144425       23        1      -0.00000408       0.00000353       0.00000205
H        9.06298036      13.41501886       4.72216782       23        1      -0.00000185       0.00000398       0.00000255
H        9.24776559      19.40713930       0.62137769       23        1       0.00000410      -0.00000016       0.00000038
H        3.68751273      10.55397329       4.72219805       23        1       0.00000094      -0.00000337       0.00000173
H        2.58704467      19.37544939       8.12121134       24        1      -0.00000035      -0.00000121      -0.00000336
H        8.14283222      14.20399997       3.83594143       24        1      -0.00000063      -0.00000202      -0.00000317
H       10.16345885      16.57807827       8.12118605       24        1      -0.00000049      -0.00000273      -0.00000013
H        4.60767650      21.74947651       3.83595174       24        1      -0.00000144       0.00000337      -0.00000329
S       15.99950718      12.19931272       1.35483096        0        1       0.00000110       0.00000108      -0.00000094
S       22.51517297       5.78364031       3.65738775        0        1      -0.00000018       0.00000133       0.00000077
S       22.25192136      23.75413759       1.35477011        0        1       0.00000010      -0.00000018      -0.00000036
S       15.73627988       6.20089195       3.65748514        0        1      -0.00000276      -0.00000090      -0.00000141
S       18.18640979       9.07417319       1.50114454        1        1      -0.00000171      -0.00000027      -0.00000070
S       24.25378095       2.64155117       5.52240752        1        1      -0.00000086      -0.00000017       0.00000120
S       20.06508086       2.91034304       1.50114931        1        1      -0.00000149       0.00000240       0.00000135
S       13.99769726       9.34300439       5.52248676        1        1      -0.00000029      -0.00000158       0.00000158
S       13.97080509       2.71226047       2.12490559        2        1       0.00000055       0.00000026      -0.00000410
S       20.12651150       9.10365390       5.63500607        2        1      -0.00000277       0.00000284      -0.00000039
S       24.28069636       9.27225426       2.12488713        2        1       0.00000014       0.00000026      -0.00000539
S       18.12501763       2.88081923       5.63502748        2        1       0.00000089      -0.00000052      -0.00000062
Ca      19.12574606       0.00000203       3.72384098        3        1       0.00000057       0.00000121      -0.00000095
Ca      12.75050294       5.99225384       3.44913360        3        1      -0.00000223       0.00000075       0.00000048
Ca      14.58572644       9.03156959       2.45515105        4        1      -0.00000022       0.00000107      -0.00000402
Ca      20.99501303       3.85738114       6.26875405        4        1      -0.00000099      -0.00000386      -0.00000178
Ca      23.66580762       2.95282984       2.45494199        4        1      -0.00000221      -0.00000102       0.00000776
Ca      17.25645518       8.12715766       6.26875746        4        1       0.00000272      -0.00000010      -0.00000051
Ca      17.31551718       3.01860892       2.84125663        5        1       0.00000449      -0.00000328      -0.00000374
Ca      23.72515267       8.65599646       5.56980638        5        1       0.00000278       0.00000050       0.00000009
Ca      20.93597870       8.96594451       2.84120666        5        1       0.00000312      -0.00000076       0.00000342
Ca      14.52636275       3.32850231       5.56985075        5        1       0.00000150      -0.00000374       0.00000089
Ca      12.75050830       0.00000833       4.35543453        6        1      -0.00000077       0.00000079       0.00000419
Ca      19.12580713       5.99224206       3.61303571        6        1       0.00000533       0.00000045       0.00000125
O       16.66376454       0.55378659       2.65249085        7        1      -0.00000117      -0.00000163       0.00000075
O       23.43212912       6.54201693       4.52677869        7        1       0.00000144      -0.00000064      -0.00000042
O       21.58769784      11.43076058       2.65247794        7        1      -0.00000350      -0.00000011       0.00000012
O       14.81933508       5.44252938       4.52690071        7        1       0.00000238       0.00000098       0.00000629
O       14.90329571       2.10858168       7.90471029        8        1      -0.00000016       0.00000166      -0.00000021
O       21.40884679       6.62440564       3.16454905        8        1      -0.00000138      -0.00000554       0.00000071
O       23.34827598       9.87577679       7.90472063        8        1       0.00000018      -0.00000168      -0.00000049
O       16.84270144       5.36016987       3.16479225        8        1      -0.00000192       0.00000430       0.00000165
O       14.97703354      11.15222476       1.49287818        9        1       0.00000009       0.00000103       0.00000377
O       21.95300721       4.63523737       4.36786549        9        1      -0.00000052       0.00000305      -0.00000073
O       23.27444711       0.83219051       1.49274717        9        1       0.00000017      -0.00000072       0.00000303
O       16.29828061       7.34943672       4.36787165        9        1       0.00000038      -0.00000845      -0.00000028
O       15.80284814      14.50820557       8.62782824       10        1      -0.00000329       0.00000242       0.00000002
O       23.33550943       5.28821363       2.52134273       10        1       0.00000104      -0.00000104       0.00000536
O       22.44879681      21.44510072       8.62789024       10        1       0.00000071      -0.00000125      -0.00000092
O       14.91597277       6.69614751       2.52134017       10        1      -0.00000177       0.00000396      -0.00000139
O       16.89269598       9.10201957       2.29054526       11        1      -0.00000012       0.00000014      -0.00000008
O       23.24650973       2.92933532       6.52453451       11        1      -0.00000338      -0.00000152      -0.00000157
O       21.35880630       2.88245978       2.29053474       11        1      -0.00000201      -0.00000379      -0.00000135
O       15.00494122       9.05518416       6.52462954       11        1       0.00000066       0.00000567       0.00000561
O       18.93380777       7.78445217       1.91507162       12        1       0.00000013       0.00000136      -0.00000432
O       25.37977414       1.84256553       6.05942189       12        1       0.00000419      -0.00000195      -0.00000254
O       19.31770884       4.20007080       1.91510455       12        1       0.00000145       0.00000625      -0.00000292
O       12.87168227      10.14196237       6.05949055       12        1      -0.00000046       0.00000083       0.00000366