180
Lattice="25.513 0.0 0.0 0.0 13.8536 0.0 0.0 0.0 20.428900214075313" Properties=species:S:1:pos:R:3:spacegroup_kinds:I:1:tags:I:1:forces:R:3 stress="0.0024483101751471576 3.1912588106324526e-05 1.5985378745153716e-05 3.1912588106324526e-05 0.002544619927440521 5.877263689239101e-06 1.5985378745153716e-05 5.877263689239101e-06 0.001252290738694279" energy=-1435.5010483397834 pbc="T T F"
Ca      25.37198583       1.46018586       5.15752799        0        1      -0.00000403       0.00000159      -0.00000082
Ca       4.29268347       5.18373761       5.37226074        0        1       0.00000333      -0.00000165       0.00000223
Ca       8.56901854       0.59712451       2.65770888        0        1      -0.00000114       0.00000124       0.00000030
Ca      10.60201188       5.05710645       4.96020247        1        1       0.00000068       0.00000509      -0.00000161
Ca       2.33074562       0.29170598       2.65114926        1        1       0.00000032       0.00000116      -0.00000206
Ca       6.25730671       1.64582885       5.46354689        1        1      -0.00000044       0.00000207      -0.00000001
S        3.19945449       1.65655710       6.00152957        2        1      -0.00000016       0.00000104       0.00000105
S        7.51429442       5.12691134       5.37425659        2        1       0.00000120       0.00000049      -0.00000026
S       11.60463664       0.46100250       2.28390077        2        1      -0.00000022      -0.00000073      -0.00000021
O        4.23557016       0.53038809       6.14912553        3        1      -0.00000133       0.00000023       0.00000161
O        8.19958074       5.51249007       4.12089998        3        1      -0.00000174       0.00000063      -0.00000164
O       12.82869308       1.07779604       2.90375197        3        1      -0.00000088       0.00000053      -0.00000093
O        2.30211988       1.24031730       4.84125643        4        1       0.00000184       0.00000226      -0.00000036
O        6.61861643       6.21328045       5.84738863        4        1      -0.00000200      -0.00000160      -0.00000010
O       10.83125317       6.79497387       3.42846496        4        1       0.00000144      -0.00000013       0.00000095
O        1.47733899       5.11416813       2.00714182        5        1       0.00000043      -0.00000102       0.00000123
O        6.58530976       3.97979127       5.12110203        5        1       0.00000136       0.00000106      -0.00000090
O       10.73031639       1.51485139       1.74675532        5        1      -0.00000240      -0.00000058       0.00000220
O        4.09311927       2.81490145       5.52033342        6        1       0.00000282      -0.00000144      -0.00000060
O        8.53628815       4.76593915       6.34420265        6        1       0.00000163      -0.00000145      -0.00000110
O       11.99785711       6.38361353       1.32857456        6        1      -0.00000117      -0.00000143       0.00000083
S        1.27418538       4.98366949       5.42091852        7        1       0.00000038       0.00000272       0.00000012
S        5.44789491       0.13831262       2.43532462        7        1       0.00000021      -0.00000162      -0.00000133
S        9.65987310       1.66178864       6.04487192        7        1      -0.00000171      -0.00000013       0.00000085
O        0.62843664       3.66826997       5.35414383        8        1       0.00000207       0.00000272       0.00000298
O        4.44022743       0.80644646       1.61087774        8        1       0.00000164       0.00000105       0.00000071
O        9.11934498       5.38313408       1.65250716        8        1       0.00000015      -0.00000540       0.00000012
O        2.13859802       5.21288691       4.22340739        9        1       0.00000130      -0.00000196      -0.00000040
O        6.13409545       1.15024028       3.30943045        9        1      -0.00000080      -0.00000190      -0.00000001
O       10.55053455       0.42966122       6.11427713        9        1      -0.00000139       0.00000006       0.00000249
O        0.17255792       5.98993278       5.43257642       10        1      -0.00000285       0.00000137      -0.00000088
O        4.69414837       6.11803769       3.30469045       10        1      -0.00000273      -0.00000079      -0.00000197
O        8.58336578       1.41748402       4.98394034       10        1       0.00000003      -0.00000217      -0.00000034
O        2.15469497       5.11230030       6.57770527       11        1       0.00000142       0.00000059      -0.00000038
O        6.50502442       6.41383170       1.68347259       11        1      -0.00000081      -0.00000012      -0.00000285
O       10.60967433       2.72428963       5.45160255       11        1      -0.00000174      -0.00000108       0.00000005
O        2.36432837       2.50468851       1.80695900       12        1       0.00000216       0.00000049       0.00000193
O        8.10260368       2.87169326       2.16340370       12        1      -0.00000035       0.00000010      -0.00000268
O       11.34444087       4.06536009       2.92629498       12        1      -0.00000151      -0.00000105      -0.00000208
H        3.24852479       2.70120801       1.47915837       13        1      -0.00000136      -0.00000081      -0.00000006
H        8.60174576       3.66142322       1.86007571       13        1       0.00000200       0.00000205      -0.00000202
H       11.69696766       4.67784741       2.25490864       13        1       0.00000194       0.00000502       0.00000483
H        1.89883841       3.36639943       1.90421608       14        1       0.00000199      -0.00000112      -0.00000311
H        7.28772512       3.22991206       2.53290874       14        1       0.00000098      -0.00000287       0.00000384
H       11.15522984       3.21471126       2.48546067       14        1       0.00000002      -0.00000204       0.00000056
Ca      25.37198584       8.38698586       5.15752799        0        1      -0.00000413       0.00000163      -0.00000080
Ca       4.29268346      12.11053761       5.37226073        0        1       0.00000333      -0.00000167       0.00000221
Ca       8.56901854       7.52392449       2.65770889        0        1      -0.00000117       0.00000162       0.00000019
Ca      10.60201187      11.98390646       4.96020250        1        1       0.00000093       0.00000489      -0.00000223
Ca       2.33074562       7.21850600       2.65114926        1        1       0.00000029       0.00000081      -0.00000201
Ca       6.25730670       8.57262885       5.46354688        1        1      -0.00000036       0.00000207       0.00000010
S        3.19945448       8.58335709       6.00152957        2        1      -0.00000001       0.00000108       0.00000126
S        7.51429442      12.05371133       5.37425658        2        1       0.00000128       0.00000074      -0.00000048
S       11.60463665       7.38780249       2.28390078        2        1      -0.00000049      -0.00000060      -0.00000049
O        4.23557017       7.45718810       6.14912554        3        1      -0.00000167      -0.00000001       0.00000149
O        8.19958074      12.43929007       4.12089997        3        1      -0.00000189       0.00000055      -0.00000142
O       12.82869307       8.00459606       2.90375198        3        1      -0.00000056       0.00000019      -0.00000107
O        2.30211986       8.16711730       4.84125643        4        1       0.00000216       0.00000223      -0.00000026
O        6.61861643      13.14008045       5.84738862        4        1      -0.00000210      -0.00000159      -0.00000014
O       10.83125316      13.72177387       3.42846496        4        1       0.00000151      -0.00000017       0.00000086
O        1.47733899      12.04096813       2.00714182        5        1       0.00000053      -0.00000115       0.00000118
O        6.58530976      10.90659127       5.12110202        5        1       0.00000135       0.00000106      -0.00000095
O       10.73031641       8.44165139       1.74675531        5        1      -0.00000259      -0.00000074       0.00000232
O        4.09311928       9.74170144       5.52033343        6        1       0.00000265      -0.00000119      -0.00000078
O        8.53628815      11.69273915       6.34420265        6        1       0.00000173      -0.00000156      -0.00000097
O       11.99785712      13.31041354       1.32857456        6        1      -0.00000136      -0.00000165       0.00000072
S        1.27418538      11.91046949       5.42091852        7        1       0.00000027       0.00000311       0.00000003
S        5.44789491       7.06511261       2.43532462        7        1       0.00000012      -0.00000192      -0.00000082
S        9.65987310       8.58858864       6.04487192        7        1      -0.00000182      -0.00000011       0.00000088
O        0.62843664      10.59506997       5.35414382        8        1       0.00000200       0.00000249       0.00000298
O        4.44022744       7.73324646       1.61087774        8        1       0.00000140       0.00000113       0.00000053
O        9.11934497      12.30993408       1.65250716        8        1       0.00000027      -0.00000526       0.00000007
O        2.13859802      12.13968691       4.22340739        9        1       0.00000130      -0.00000199      -0.00000041
O        6.13409545       8.07704028       3.30943046        9        1      -0.00000069      -0.00000179      -0.00000006
O       10.55053454       7.35646122       6.11427714        9        1      -0.00000126       0.00000014       0.00000244
O        0.17255792      12.91673278       5.43257642       10        1      -0.00000268       0.00000122      -0.00000087
O        4.69414837      13.04483769       3.30469045       10        1      -0.00000293      -0.00000108      -0.00000164
O        8.58336578       8.34428402       4.98394034       10        1      -0.00000009      -0.00000219      -0.00000040
O        2.15469498      12.03910030       6.57770526       11        1       0.00000143       0.00000057      -0.00000030
O        6.50502443      13.34063169       1.68347259       11        1      -0.00000096       0.00000004      -0.00000277
O       10.60967432       9.65108964       5.45160255       11        1      -0.00000162      -0.00000117       0.00000006
O        2.36432835       9.43148846       1.80695902       12        1       0.00000252       0.00000141       0.00000162
O        8.10260369       9.79849333       2.16340370       12        1      -0.00000272      -0.00000117      -0.00000131
O       11.34444090      10.99216005       2.92629486       12        1      -0.00000218      -0.00000079      -0.00000011
H        3.24852475       9.62800805       1.47915839       13        1      -0.00000049      -0.00000158      -0.00000032
H        8.60174584      10.58822321       1.86007567       13        1       0.00000116       0.00000296      -0.00000171
H       11.69696771      11.60464756       2.25490867       13        1       0.00000131       0.00000262       0.00000423
H        1.89883849      10.29319942       1.90421605       14        1       0.00000061      -0.00000088      -0.00000261
H        7.28772505      10.15671203       2.53290880       14        1       0.00000413      -0.00000304       0.00000230
H       11.15522977      10.14151112       2.48546074       14        1       0.00000115       0.00000043      -0.00000048
Ca      12.61548584       1.46018587       5.15752801        0        1      -0.00000415       0.00000152      -0.00000099
Ca      17.04918347       5.18373761       5.37226074        0        1       0.00000329      -0.00000164       0.00000215
Ca      21.32551855       0.59712449       2.65770889        0        1      -0.00000137       0.00000157       0.00000012
Ca      23.35851185       5.05710649       4.96020254        1        1       0.00000122       0.00000447      -0.00000274
Ca      15.08724563       0.29170599       2.65114926        1        1       0.00000023       0.00000095      -0.00000196
Ca      19.01380672       1.64582885       5.46354689        1        1      -0.00000071       0.00000205       0.00000007
S       15.95595449       1.65655710       6.00152958        2        1      -0.00000011       0.00000101       0.00000111
S       20.27079442       5.12691133       5.37425658        2        1       0.00000115       0.00000067       0.00000024
S       24.36113665       0.46100250       2.28390077        2        1      -0.00000022      -0.00000082       0.00000006
O       16.99207016       0.53038809       6.14912554        3        1      -0.00000135       0.00000026       0.00000157
O       20.95608074       5.51249007       4.12089998        3        1      -0.00000172       0.00000068      -0.00000184
O        0.07219308       1.07779604       2.90375197        3        1      -0.00000085       0.00000049      -0.00000112
O       15.05861988       1.24031730       4.84125644        4        1       0.00000193       0.00000231      -0.00000033
O       19.37511643       6.21328045       5.84738863        4        1      -0.00000198      -0.00000173      -0.00000022
O       23.58775316       6.79497388       3.42846495        4        1       0.00000144      -0.00000030       0.00000102
O       14.23383900       5.11416814       2.00714183        5        1       0.00000036      -0.00000121       0.00000117
O       19.34180976       3.97979127       5.12110203        5        1       0.00000136       0.00000108      -0.00000099
O       23.48681640       1.51485139       1.74675530        5        1      -0.00000253      -0.00000056       0.00000240
O       16.84961927       2.81490145       5.52033343        6        1       0.00000280      -0.00000148      -0.00000065
O       21.29278815       4.76593915       6.34420265        6        1       0.00000158      -0.00000151      -0.00000110
O       24.75435711       6.38361354       1.32857456        6        1      -0.00000124      -0.00000164       0.00000080
S       14.03068538       4.98366950       5.42091853        7        1       0.00000035       0.00000249       0.00000005
S       18.20439490       0.13831262       2.43532461        7        1       0.00000015      -0.00000204      -0.00000038
S       22.41637308       1.66178863       6.04487191        7        1      -0.00000137      -0.00000002       0.00000102
O       13.38493663       3.66826997       5.35414383        8        1       0.00000212       0.00000279       0.00000298
O       17.19672743       0.80644645       1.61087775        8        1       0.00000137       0.00000130       0.00000037
O       21.87584497       5.38313408       1.65250716        8        1       0.00000026      -0.00000528       0.00000009
O       14.89509802       5.21288691       4.22340739        9        1       0.00000131      -0.00000195      -0.00000036
O       18.89059545       1.15024028       3.30943046        9        1      -0.00000078      -0.00000186      -0.00000015
O       23.30703458       0.42966124       6.11427714        9        1      -0.00000191      -0.00000031       0.00000237
O       12.92905792       5.98993278       5.43257642       10        1      -0.00000281       0.00000148      -0.00000087
O       17.45064836       6.11803769       3.30469045       10        1      -0.00000262      -0.00000069      -0.00000206
O       21.33986574       1.41748403       4.98394033       10        1       0.00000066      -0.00000229      -0.00000023
O       14.91119498       5.11230030       6.57770527       11        1       0.00000142       0.00000062      -0.00000034
O       19.26152442       6.41383170       1.68347259       11        1      -0.00000063      -0.00000011      -0.00000303
O       23.36617435       2.72428960       5.45160256       11        1      -0.00000210      -0.00000052      -0.00000019
O       15.12082836       2.50468849       1.80695902       12        1       0.00000231       0.00000081       0.00000178
O       20.85910369       2.87169333       2.16340370       12        1      -0.00000233      -0.00000111      -0.00000149
O       24.10094094       4.06536002       2.92629473       12        1      -0.00000291      -0.00000058       0.00000201
H       16.00502478       2.70120802       1.47915838       13        1      -0.00000106      -0.00000107      -0.00000015
H       21.35824584       3.66142321       1.86007567       13        1       0.00000114       0.00000283      -0.00000168
H       24.45346775       4.67784773       2.25490870       13        1       0.00000062       0.00000002       0.00000356
H       14.65533844       3.36639943       1.90421608       14        1       0.00000155      -0.00000092      -0.00000292
H       20.04422505       3.22991203       2.53290880       14        1       0.00000382      -0.00000297       0.00000244
H       23.91172970       3.21471096       2.48546081       14        1       0.00000232       0.00000318      -0.00000161
Ca      12.61548584       8.38698586       5.15752800        0        1      -0.00000416       0.00000159      -0.00000088
Ca      17.04918347      12.11053761       5.37226074        0        1       0.00000324      -0.00000157       0.00000218
Ca      21.32551855       7.52392449       2.65770889        0        1      -0.00000135       0.00000161       0.00000012
Ca      23.35851185      11.98390649       4.96020254        1        1       0.00000131       0.00000440      -0.00000291
Ca      15.08724563       7.21850599       2.65114926        1        1       0.00000024       0.00000097      -0.00000191
Ca      19.01380672       8.57262885       5.46354689        1        1      -0.00000069       0.00000199       0.00000003
S       15.95595450       8.58335710       6.00152959        2        1      -0.00000013       0.00000089       0.00000098
S       20.27079442      12.05371133       5.37425657        2        1       0.00000124       0.00000048      -0.00000002
S       24.36113665       7.38780250       2.28390077        2        1      -0.00000051      -0.00000069      -0.00000038
O       16.99207014       7.45718807       6.14912553        3        1      -0.00000111       0.00000063       0.00000171
O       20.95608074      12.43929007       4.12089998        3        1      -0.00000179       0.00000066      -0.00000171
O        0.07219307       8.00459604       2.90375197        3        1      -0.00000065       0.00000044      -0.00000106
O       15.05861990       8.16711730       4.84125645        4        1       0.00000147       0.00000228      -0.00000052
O       19.37511643      13.14008045       5.84738863        4        1      -0.00000208      -0.00000158      -0.00000015
O       23.58775316      13.72177388       3.42846495        4        1       0.00000148      -0.00000024       0.00000089
O       14.23383899      12.04096814       2.00714183        5        1       0.00000043      -0.00000118       0.00000117
O       19.34180976      10.90659127       5.12110202        5        1       0.00000140       0.00000114      -0.00000097
O       23.48681640       8.44165139       1.74675530        5        1      -0.00000246      -0.00000078       0.00000252
O       16.84961926       9.74170146       5.52033342        6        1       0.00000299      -0.00000169      -0.00000048
O       21.29278815      11.69273915       6.34420264        6        1       0.00000161      -0.00000150      -0.00000103
O       24.75435711      13.31041354       1.32857455        6        1      -0.00000126      -0.00000178       0.00000067
S       14.03068538      11.91046949       5.42091853        7        1       0.00000021       0.00000313      -0.00000011
S       18.20439491       7.06511262       2.43532461        7        1       0.00000030      -0.00000211       0.00000021
S       22.41637309       8.58858863       6.04487192        7        1      -0.00000152      -0.00000002       0.00000093
O       13.38493664      10.59506997       5.35414383        8        1       0.00000198       0.00000249       0.00000298
O       17.19672743       7.73324645       1.61087775        8        1       0.00000114       0.00000149       0.00000013
O       21.87584497      12.30993408       1.65250716        8        1       0.00000025      -0.00000531       0.00000010
O       14.89509802      12.13968691       4.22340739        9        1       0.00000131      -0.00000200      -0.00000032
O       18.89059545       8.07704028       3.30943046        9        1      -0.00000088      -0.00000206      -0.00000036
O       23.30703457       7.35646124       6.11427714        9        1      -0.00000175      -0.00000026       0.00000238
O       12.92905792      12.91673279       5.43257642       10        1      -0.00000265       0.00000120      -0.00000087
O       17.45064836      13.04483769       3.30469045       10        1      -0.00000266      -0.00000074      -0.00000201
O       21.33986575       8.34428403       4.98394033       10        1       0.00000056      -0.00000227      -0.00000021
O       14.91119497      12.03910030       6.57770527       11        1       0.00000154       0.00000059      -0.00000022
O       19.26152442      13.34063170       1.68347259       11        1      -0.00000075      -0.00000010      -0.00000295
O       23.36617434       9.65108961       5.45160256       11        1      -0.00000198      -0.00000062      -0.00000015
O       15.12082836       9.43148848       1.80695902       12        1       0.00000216       0.00000103       0.00000180
O       20.85910367       9.79849333       2.16340372       12        1      -0.00000046      -0.00000101      -0.00000241
O       24.10094094      10.99216000       2.92629470       12        1      -0.00000280       0.00000032       0.00000240
H       16.00502477       9.62800803       1.47915839       13        1      -0.00000066      -0.00000120      -0.00000028
H       21.35824584      10.58822322       1.86007567       13        1       0.00000073       0.00000217      -0.00000142
H       24.45346777      11.60464778       2.25490870       13        1       0.00000026      -0.00000098       0.00000377
H       14.65533846      10.29319943       1.90421607       14        1       0.00000124      -0.00000098      -0.00000281
H       20.04422507      10.15671203       2.53290880       14        1       0.00000239      -0.00000238       0.00000309
H       23.91172969      10.14151093       2.48546083       14        1       0.00000253       0.00000341      -0.00000213
