 DBCSR| CPU Multiplication driver                                           XSMM (U)
 DBCSR| Multrec recursion limit                                              512 (U)
 DBCSR| Multiplication stack size                                           1000 (D)
 DBCSR| Maximum elements for images                                    UNLIMITED (U)
 DBCSR| Multiplicative factor virtual images                                   1 (U)
 DBCSR| Use multiplication densification                                       T (D)
 DBCSR| Multiplication size stacks                                             3 (U)
 DBCSR| Use memory pool for CPU allocation                                     F (U)
 DBCSR| Number of 3D layers                                               SINGLE (U)
 DBCSR| Use MPI memory allocation                                              F (U)
 DBCSR| Use RMA algorithm                                                      F (U)
 DBCSR| Use Communication thread                                               T (U)
 DBCSR| Communication thread load                                             30 (D)
 DBCSR| MPI: My process id                                                     0
 DBCSR| MPI: Number of processes                                               1
 DBCSR| OMP: Current number of threads                                        16
 DBCSR| OMP: Max number of threads                                            16
 DBCSR| Split modifier for TAS multiplication algorithm                  1.0E+00 (U)


  **** **** ******  **  PROGRAM STARTED AT               2026-01-21 12:09:41.911
 ***** ** ***  *** **   PROGRAM STARTED ON                          cf9827389237
 **    ****   ******    PROGRAM STARTED BY                             <unknown>
 ***** **    ** ** **   PROGRAM PROCESS ID                                   678
  **** **  *******  **  PROGRAM STARTED IN                             /mnt/cp2k

 CP2K| version string:                 CP2K version 2026.1 (Development Version)
 CP2K| source code revision number:                                   4e96ea1a00
 CP2K| cp2kflags: omp libint fftw3 libxc elpa parallel scalapack mpi_f08 cosma a
 CP2K|            ce deepmd xsmm dbcsr_acc plumed2 spglib libdftd4 mctc-lib tbli
 CP2K|            ite sirius libvori libbqb libtorch mimic offload_cuda libvdwxc
 CP2K|            c hdf5 trexio libsmeagol greenx
 CP2K| is freely available from                            https://www.cp2k.org/
 CP2K| Program compiled at                                   2026-01-16 05:48:39
 CP2K| Program compiled on                                                      
 CP2K| Program compiled for                                               x86_64
 CP2K| Data directory path                     /opt/cp2k/install/share/cp2k/data
 CP2K| Input file name                                               geo_opt.inp

 GLOBAL| Force Environment number                                              1
 GLOBAL| Basis set file name                                    BASIS_MOLOPT_UZH
 GLOBAL| Potential file name                                       POTENTIAL_UZH
 GLOBAL| MM Potential file name                                     MM_POTENTIAL
 GLOBAL| Coordinate file name              conventional_cell_slab_020_L1_2x2.xyz
 GLOBAL| Method name                                                        CP2K
 GLOBAL| Project name                                         gypsum_slab_geoopt
 GLOBAL| Run type                                                        GEO_OPT
 GLOBAL| FFT library                                                       FFTW3
 GLOBAL| Diagonalization library                                            ELPA
 GLOBAL| Cholesky decomposition library                                ScaLAPACK
 GLOBAL| DGEMM library                                                      BLAS
 GLOBAL| Minimum number of eigenvectors for ELPA usage                        16
 GLOBAL| Orthonormality check for eigenvectors                          DISABLED
 GLOBAL| Matrix multiplication library                                     COSMA
 GLOBAL| All-to-all communication in single precision                          F
 GLOBAL| FFTs using library dependent lengths                                  F
 GLOBAL| Grid backend                                                       AUTO
 GLOBAL| Global print level                                                  LOW
 GLOBAL| MPI I/O enabled                                                       T
 GLOBAL| Total number of message passing processes                             1
 GLOBAL| Number of distributed systems (nodes)                                 1
 GLOBAL| Number of threads for this process                                   16
 GLOBAL| This output is from process                                           0
 GLOBAL| OpenMP stack size per thread (OMP_STACKSIZE)                        16M
 GLOBAL| CPU model name                           Intel(R) Core(TM) Ultra 7 265K
 GLOBAL| CPUID                                                              1002

 MEMORY| system memory details [Kb]
 MEMORY|                        rank 0           min           max       average
 MEMORY| MemTotal             32486564      32486564      32486564      32486564
 MEMORY| MemFree              18452596      18452596      18452596      18452596
 MEMORY| Buffers                 46212         46212         46212         46212
 MEMORY| Cached                1999416       1999416       1999416       1999416
 MEMORY| Slab                   732368        732368        732368        732368
 MEMORY| SReclaimable           571672        571672        571672        571672
 MEMORY| MemLikelyFree        21069896      21069896      21069896      21069896


 GENERATE|  Preliminary Number of Bonds generated:                             0
 GENERATE|  Achieved consistency in connectivity generation.

 *******************************************************************************
 *******************************************************************************
 **                                                                           **
 **     #####                         ##              ##                      **
 **    ##   ##            ##          ##              ##                      **
 **   ##     ##                       ##            ######                    **
 **   ##     ##  ##   ##  ##   #####  ##  ##   ####   ##    #####    #####    **
 **   ##     ##  ##   ##  ##  ##      ## ##   ##      ##   ##   ##  ##   ##   **
 **   ##  ## ##  ##   ##  ##  ##      ####     ###    ##   ######   ######    **
 **    ##  ###   ##   ##  ##  ##      ## ##      ##   ##   ##       ##        **
 **     #######   #####   ##   #####  ##  ##  ####    ##    #####   ##        **
 **           ##                                                    ##        **
 **                                                                           **
 **                                                ... make the atoms dance   **
 **                                                                           **
 **            Copyright (C) by CP2K developers group (2000-2026)             **
 **                      J. Chem. Phys. 152, 194103 (2020)                    **
 **                                                                           **
 *******************************************************************************


 TOTAL NUMBERS AND MAXIMUM NUMBERS

  Total number of            - Atomic kinds:                                   4
                             - Atoms:                                        384
                             - Shell sets:                                   384
                             - Shells:                                      2032
                             - Primitive Cartesian functions:               1920
                             - Cartesian basis functions:                   5488
                             - Spherical basis functions:                   5104

  Maximum angular momentum of- Orbital basis functions:                        2
                             - Local part of the GTH pseudopotential:          2
                             - Non-local part of the GTH pseudopotential:      3


 SCF PARAMETERS         Density guess:                                    ATOMIC
                        --------------------------------------------------------
                        max_scf:                                             120
                        max_scf_history:                                       0
                        max_diis:                                              4
                        --------------------------------------------------------
                        eps_scf:                                        1.00E-06
                        eps_scf_history:                                0.00E+00
                        eps_diis:                                       0.00E+00
                        eps_eigval:                                     1.00E-05
                        --------------------------------------------------------
                        level_shift [a.u.]:                             0.000000
                        --------------------------------------------------------
                        Outer loop SCF in use 
                        No variables optimised in outer loop
                        eps_scf                                         1.00E-06
                        max_scf                                               20
                        No outer loop optimization
                        step_size                                       5.00E-01

 BFGS| Use rational function optimization for step estimation:                NO
 BFGS| Use model Hessian for initial guess:                                  YES
 BFGS| Restart Hessian:                                                       NO
 BFGS| Trust radius:                                                       0.472

 *******************************************************************************
 ***                     STARTING GEOMETRY OPTIMIZATION                      ***
 ***                                   BFGS                                  ***
 *******************************************************************************

 Extrapolation method: initial_guess

 Spin 1

 Number of electrons:                                                       1088
 Number of occupied orbitals:                                               1088
 Number of molecular orbitals:                                              1088

 Spin 2

 Number of electrons:                                                       1088
 Number of occupied orbitals:                                               1088
 Number of molecular orbitals:                                              1088

 Number of orbital functions:                                               5104
 Number of independent orbital functions:                                   5104


 SCF WAVEFUNCTION OPTIMIZATION

  ----------------------------------- OT ---------------------------------------
  Minimizer      : DIIS                : direct inversion
                                         in the iterative subspace
                                         using   7 DIIS vectors
                                         safer DIIS on
  Preconditioner : FULL_SINGLE_INVERSE : inversion of 
                                         H + eS - 2*(Sc)(c^T*H*c+const)(Sc)^T
  Precond_solver : INVERSE_UPDATE
  stepsize       :    0.10000000                  energy_gap     :    0.10000000
  eps_taylor     :   0.10000E-15                  max_taylor     :             4
  ----------------------------------- OT ---------------------------------------

  Step     Update method      Time    Convergence         Total energy    Change
  ------------------------------------------------------------------------------
     1 OT DIIS     0.10E+00   80.3     0.00936276     -5685.0876218682 -5.69E+03
     2 OT DIIS     0.10E+00   19.8     0.00629438     -5745.6926508172 -6.06E+01
     3 OT DIIS     0.10E+00   26.5     0.00458720     -5771.5015003766 -2.58E+01
     4 OT DIIS     0.10E+00   22.6     0.00330473     -5805.9327888453 -3.44E+01
     5 OT DIIS     0.10E+00   21.7     0.00269224     -5823.9966208448 -1.81E+01
     6 OT DIIS     0.10E+00   31.7     0.00202259     -5838.4144599775 -1.44E+01
     7 OT DIIS     0.10E+00   26.2     0.00152107     -5850.3642448327 -1.19E+01
     8 OT DIIS     0.10E+00   20.6     0.00110618     -5859.4548649660 -9.09E+00
     9 OT DIIS     0.10E+00   19.9     0.00084995     -5864.3835026750 -4.93E+00
    10 OT DIIS     0.10E+00   21.2     0.00072258     -5866.7422843061 -2.36E+00
    11 OT DIIS     0.10E+00   28.4     0.00055387     -5869.2164970394 -2.47E+00
    12 OT DIIS     0.10E+00   27.9     0.00046931     -5870.3275352643 -1.11E+00
    13 OT DIIS     0.10E+00   23.2     0.00037856     -5871.5189373601 -1.19E+00
    14 OT DIIS     0.10E+00   18.6     0.00030968     -5872.2646437190 -7.46E-01
    15 OT DIIS     0.10E+00   21.8     0.00024500     -5872.9174767837 -6.53E-01
    16 OT DIIS     0.10E+00   27.0     0.00021721     -5873.2178527443 -3.00E-01
    17 OT DIIS     0.10E+00   24.1     0.00017357     -5873.6062602595 -3.88E-01
    18 OT DIIS     0.10E+00   25.9     0.00016012     -5873.7295407481 -1.23E-01
    19 OT DIIS     0.10E+00   25.5     0.00013585     -5873.9274239951 -1.98E-01
    20 OT DIIS     0.10E+00   27.7     0.00011736     -5874.0897916990 -1.62E-01
    21 OT DIIS     0.10E+00   21.2     0.00010889     -5874.1833890135 -9.36E-02
    22 OT DIIS     0.10E+00   19.6     0.00009617     -5874.3086400775 -1.25E-01
    23 OT DIIS     0.10E+00   20.7     0.00008820     -5874.3853873951 -7.67E-02
    24 OT DIIS     0.10E+00   22.9     0.00008029     -5874.4722626019 -8.69E-02
    25 OT DIIS     0.10E+00   20.4     0.00007470     -5874.5274652328 -5.52E-02
    26 OT DIIS     0.10E+00   25.4     0.00006784     -5874.6004363584 -7.30E-02
    27 OT DIIS     0.10E+00   19.6     0.00006337     -5874.6508564725 -5.04E-02
    28 OT DIIS     0.10E+00   21.5     0.00005835     -5874.7039574676 -5.31E-02
    29 OT DIIS     0.10E+00   18.9     0.00005438     -5874.7477872009 -4.38E-02
    30 OT DIIS     0.10E+00   19.1     0.00005126     -5874.7831299510 -3.53E-02
    31 OT DIIS     0.10E+00   20.4     0.00004686     -5874.8234345243 -4.03E-02
    32 OT DIIS     0.10E+00   21.7     0.00004527     -5874.8502171603 -2.68E-02
    33 OT DIIS     0.10E+00   18.1     0.00004158     -5874.8747534302 -2.45E-02
    34 OT DIIS     0.10E+00   19.9     0.00004136     -5874.8915606077 -1.68E-02
    35 OT DIIS     0.10E+00   20.9     0.00004035     -5874.8932926396 -1.73E-03
    36 OT DIIS     0.10E+00   24.5     0.00003908     -5874.8996307201 -6.34E-03
    37 OT DIIS     0.10E+00   23.8     0.00003673     -5874.9299378531 -3.03E-02
    38 OT DIIS     0.10E+00   21.7     0.00003437     -5874.9533141982 -2.34E-02
    39 OT DIIS     0.10E+00   25.1     0.00003197     -5874.9740969061 -2.08E-02
    40 OT DIIS     0.10E+00   19.8     0.00003064     -5874.9861682421 -1.21E-02
    41 OT DIIS     0.10E+00   24.4     0.00002947     -5874.9985328565 -1.24E-02
    42 OT DIIS     0.10E+00   24.7     0.00002872     -5875.0043457842 -5.81E-03
    43 OT DIIS     0.10E+00   24.7     0.00002784     -5875.0155167536 -1.12E-02
    44 OT DIIS     0.10E+00   24.2     0.00002699     -5875.0280759998 -1.26E-02
    45 OT DIIS     0.10E+00   20.2     0.00002631     -5875.0390260884 -1.10E-02
    46 OT DIIS     0.10E+00   21.4     0.00002514     -5875.0539119736 -1.49E-02
    47 OT DIIS     0.10E+00   21.5     0.00002453     -5875.0628885059 -8.98E-03
    48 OT DIIS     0.10E+00   22.6     0.00002391     -5875.0701666795 -7.28E-03
    49 OT DIIS     0.10E+00   23.5     0.00002314     -5875.0801147474 -9.95E-03
    50 OT DIIS     0.10E+00   21.7     0.00002203     -5875.0894693845 -9.35E-03
    51 OT DIIS     0.10E+00   21.4     0.00002122     -5875.0979834095 -8.51E-03
    52 OT DIIS     0.10E+00   18.2     0.00002057     -5875.1059094544 -7.93E-03
    53 OT DIIS     0.10E+00   21.1     0.00001940     -5875.1120716194 -6.16E-03
    54 OT DIIS     0.10E+00   20.4     0.00002099     -5875.1194922387 -7.42E-03
    55 OT SD       0.10E+00   21.3     0.00001865     -5875.1225392156 -3.05E-03
    56 OT DIIS     0.10E+00   21.4     0.00001805     -5875.1229184020 -3.79E-04
    57 OT DIIS     0.10E+00   27.0     0.00001722     -5875.1251357877 -2.22E-03
    58 OT DIIS     0.10E+00   20.0     0.00001683     -5875.1268231143 -1.69E-03
    59 OT DIIS     0.10E+00   19.6     0.00001606     -5875.1342268421 -7.40E-03
    60 OT DIIS     0.10E+00   18.9     0.00001576     -5875.1368424480 -2.62E-03
    61 OT DIIS     0.10E+00   24.0     0.00001527     -5875.1411262232 -4.28E-03
    62 OT DIIS     0.10E+00   21.2     0.00001479     -5875.1471876987 -6.06E-03
    63 OT DIIS     0.10E+00   25.3     0.00001441     -5875.1521620272 -4.97E-03
    64 OT DIIS     0.10E+00   17.6     0.00001394     -5875.1577860153 -5.62E-03
    65 OT DIIS     0.10E+00   19.7     0.00001335     -5875.1641939772 -6.41E-03
    66 OT DIIS     0.10E+00   28.0     0.00001310     -5875.1667663238 -2.57E-03
    67 OT DIIS     0.10E+00   24.3     0.00001255     -5875.1736263705 -6.86E-03
    68 OT DIIS     0.10E+00   23.6     0.00001232     -5875.1778863220 -4.26E-03
    69 OT DIIS     0.10E+00   22.6     0.00001207     -5875.1805953115 -2.71E-03
    70 OT DIIS     0.10E+00   19.2     0.00001175     -5875.1865760113 -5.98E-03
    71 OT DIIS     0.10E+00   19.2     0.00001134     -5875.1901924683 -3.62E-03
    72 OT DIIS     0.10E+00   20.1     0.00001123     -5875.1939304145 -3.74E-03
    73 OT DIIS     0.10E+00   24.1     0.00001090     -5875.1958373300 -1.91E-03
    74 OT DIIS     0.10E+00   21.9     0.00001067     -5875.2001981541 -4.36E-03
    75 OT DIIS     0.10E+00   21.9     0.00001174     -5875.2016662621 -1.47E-03
    76 OT DIIS     0.10E+00   22.6     0.00000987     -5875.2056501485 -3.98E-03
    77 OT SD       0.10E+00   18.5     0.00001170     -5875.2055668897  8.33E-05
    78 OT DIIS     0.10E+00   19.3     0.00001078     -5875.2057121217 -1.45E-04
    79 OT DIIS     0.10E+00   19.1     0.00000949     -5875.2074844718 -1.77E-03
    80 OT DIIS     0.10E+00   21.4     0.00000920     -5875.2102102714 -2.73E-03
    81 OT DIIS     0.10E+00   22.7     0.00000899     -5875.2127186751 -2.51E-03
    82 OT DIIS     0.10E+00   20.8     0.00000906     -5875.2131951245 -4.76E-04
    83 OT DIIS     0.10E+00   19.5     0.00000859     -5875.2149431160 -1.75E-03
    84 OT DIIS     0.10E+00   22.2     0.00000956     -5875.2159972111 -1.05E-03
    85 OT DIIS     0.10E+00   25.8     0.00000816     -5875.2183253481 -2.33E-03
    86 OT DIIS     0.10E+00   22.3     0.00000813     -5875.2188636667 -5.38E-04
    87 OT DIIS     0.10E+00   22.7     0.00000800     -5875.2198903017 -1.03E-03
    88 OT DIIS     0.10E+00   21.3     0.00000785     -5875.2217296134 -1.84E-03
    89 OT DIIS     0.10E+00   19.3     0.00000772     -5875.2233605984 -1.63E-03
    90 OT DIIS     0.10E+00   20.5     0.00000773     -5875.2252055728 -1.84E-03
    91 OT DIIS     0.10E+00   20.4     0.00000739     -5875.2271222216 -1.92E-03
    92 OT DIIS     0.10E+00   22.2     0.00000800     -5875.2283477360 -1.23E-03
    93 OT SD       0.10E+00   22.6     0.00000701     -5875.2315069723 -3.16E-03
    94 OT DIIS     0.10E+00   22.6     0.00000695     -5875.2315612727 -5.43E-05
    95 OT DIIS     0.10E+00   26.0     0.00000781     -5875.2333970779 -1.84E-03
    96 OT DIIS     0.10E+00   19.0     0.00000668     -5875.2345687689 -1.17E-03
    97 OT DIIS     0.10E+00   20.4     0.00000654     -5875.2358273055 -1.26E-03
    98 OT SD       0.10E+00   21.4     0.00000643     -5875.2378262574 -2.00E-03
    99 OT DIIS     0.10E+00   26.7     0.00000638     -5875.2378719451 -4.57E-05
   100 OT DIIS     0.10E+00   23.4     0.00000617     -5875.2404461331 -2.57E-03
   101 OT DIIS     0.10E+00   21.4     0.00000616     -5875.2419430313 -1.50E-03
   102 OT DIIS     0.10E+00   19.2     0.00000585     -5875.2428749437 -9.32E-04
   103 OT DIIS     0.10E+00   20.0     0.00000572     -5875.2439835809 -1.11E-03
   104 OT DIIS     0.10E+00   20.4     0.00000567     -5875.2443998696 -4.16E-04
   105 OT DIIS     0.10E+00   26.2     0.00000551     -5875.2457151195 -1.32E-03
   106 OT DIIS     0.10E+00   21.8     0.00000546     -5875.2471508787 -1.44E-03
   107 OT SD       0.10E+00   21.8     0.00000575     -5875.2479200251 -7.69E-04
   108 OT DIIS     0.10E+00   18.7     0.00000556     -5875.2479559797 -3.60E-05
   109 OT DIIS     0.10E+00   19.8     0.00000526     -5875.2487255521 -7.70E-04
   110 OT DIIS     0.10E+00   25.7     0.00000540     -5875.2492180018 -4.92E-04
   111 OT DIIS     0.10E+00   24.7     0.00000503     -5875.2504759223 -1.26E-03
   112 OT DIIS     0.10E+00   24.2     0.00000507     -5875.2510109571 -5.35E-04
   113 OT DIIS     0.10E+00   24.7     0.00000490     -5875.2516577574 -6.47E-04
   114 OT DIIS     0.10E+00   19.8     0.00000480     -5875.2532826664 -1.62E-03
   115 OT DIIS     0.10E+00   19.9     0.00000474     -5875.2536507256 -3.68E-04
   116 OT SD       0.10E+00   21.0     0.00000468     -5875.2558066827 -2.16E-03
   117 OT DIIS     0.10E+00   22.4     0.00000462     -5875.2558308410 -2.42E-05
   118 OT DIIS     0.10E+00   24.7     0.00000451     -5875.2568223268 -9.91E-04
   119 OT DIIS     0.10E+00   28.5     0.00000460     -5875.2574443488 -6.22E-04
   120 OT DIIS     0.10E+00   21.2     0.00000443     -5875.2577709104 -3.27E-04

  Leaving inner SCF loop after reaching   120 steps.


  Electronic density on regular grids:      -2176.0000000186       -0.0000000186
  Core density on regular grids:             2175.9999999991       -0.0000000009
  Total charge density on r-space grids:       -0.0000000195
  Total charge density g-space grids:          -0.0000000195

  Overlap energy of the core charge distribution:               0.00001544226867
  Self energy of the core charge distribution:             -14262.87427392135396
  Core Hamiltonian energy:                                   3826.77986861049794
  Hartree energy:                                            5727.30592404821437
  Exchange-correlation energy:                              -1163.26172974882593
  Dispersion energy:                                           -3.20757534115797

  Total energy:                                             -5875.25777091035707

  outer SCF iter =    1 RMS gradient =   0.44E-05 energy =      -5875.2577709104

  ----------------------------------- OT ---------------------------------------
  Minimizer      : DIIS                : direct inversion
                                         in the iterative subspace
                                         using   7 DIIS vectors
                                         safer DIIS on
  Preconditioner : FULL_SINGLE_INVERSE : inversion of 
                                         H + eS - 2*(Sc)(c^T*H*c+const)(Sc)^T
  Precond_solver : INVERSE_UPDATE
  stepsize       :    0.10000000                  energy_gap     :    0.10000000
  eps_taylor     :   0.10000E-15                  max_taylor     :             4
  ----------------------------------- OT ---------------------------------------

  Step     Update method      Time    Convergence         Total energy    Change
  ------------------------------------------------------------------------------


     Lanczos converged:  F threshold:   0.100E-02
     Est. extremal eigenvalues:    0.204E+02   0.435E-01
     Est. condition number :    0.469E+03
     Hotelling iter   1 1.00000000   0.992E+00       5.359    99244.484
     Hotelling iter   2 1.00000000   0.968E+00       2.373   224149.832
     Hotelling iter   3 1.00000000   0.881E+00       2.339   227392.768
     Hotelling iter   4 1.00000000   0.619E+00       2.374   224013.557
     Hotelling iter   5 1.00000000   0.201E+00       2.364   225020.674



     Lanczos converged:  F threshold:   0.100E-02
     Est. extremal eigenvalues:    0.204E+02   0.435E-01
     Est. condition number :    0.469E+03
     Hotelling iter   1 1.00000000   0.992E+00       4.458   119289.789
     Hotelling iter   2 1.00000000   0.968E+00       2.119   251021.483
     Hotelling iter   3 1.00000000   0.881E+00       2.222   239347.198
     Hotelling iter   4 1.00000000   0.619E+00       2.513   211662.153
     Hotelling iter   5 1.00000000   0.201E+00       2.090   254471.459

     1 OT DIIS     0.10E+00  105.2     0.00003164     -5875.2593509386 -1.58E-03
     2 OT DIIS     0.10E+00   18.6     0.00002618     -5875.2603173781 -9.66E-04
     3 OT DIIS     0.10E+00   18.6     0.00002378     -5875.2611767872 -8.59E-04
     4 OT DIIS     0.10E+00   17.3     0.00002023     -5875.2622213484 -1.04E-03
     5 OT DIIS     0.10E+00   19.4     0.00001802     -5875.2633651600 -1.14E-03
     6 OT DIIS     0.10E+00   18.7     0.00001724     -5875.2640704078 -7.05E-04
     7 OT DIIS     0.10E+00   19.2     0.00001612     -5875.2651620261 -1.09E-03
     8 OT DIIS     0.10E+00   17.7     0.00001546     -5875.2662045022 -1.04E-03
     9 OT DIIS     0.10E+00   19.0     0.00001480     -5875.2673064823 -1.10E-03
    10 OT DIIS     0.10E+00   19.1     0.00001403     -5875.2687689689 -1.46E-03
    11 OT DIIS     0.10E+00   23.9     0.00001345     -5875.2700673633 -1.30E-03
    12 OT DIIS     0.10E+00   18.4     0.00001294     -5875.2712748225 -1.21E-03
    13 OT DIIS     0.10E+00   19.5     0.00001251     -5875.2723007956 -1.03E-03
    14 OT DIIS     0.10E+00   19.6     0.00001207     -5875.2733621499 -1.06E-03
    15 OT DIIS     0.10E+00   20.4     0.00001168     -5875.2742347986 -8.73E-04
    16 OT DIIS     0.10E+00   21.7     0.00001131     -5875.2751167377 -8.82E-04
    17 OT DIIS     0.10E+00   20.8     0.00001100     -5875.2759323405 -8.16E-04
    18 OT DIIS     0.10E+00   23.2     0.00001068     -5875.2766745128 -7.42E-04
    19 OT DIIS     0.10E+00   20.1     0.00001040     -5875.2773336263 -6.59E-04
    20 OT DIIS     0.10E+00   19.4     0.00001016     -5875.2779363083 -6.03E-04
    21 OT DIIS     0.10E+00   20.9     0.00000994     -5875.2784689760 -5.33E-04
    22 OT DIIS     0.10E+00   21.9     0.00000973     -5875.2789801803 -5.11E-04
    23 OT DIIS     0.10E+00   19.6     0.00000956     -5875.2793561038 -3.76E-04
    24 OT DIIS     0.10E+00   19.2     0.00000939     -5875.2797305522 -3.74E-04
    25 OT DIIS     0.10E+00   20.6     0.00000926     -5875.2800642856 -3.34E-04
    26 OT DIIS     0.10E+00   20.6     0.00000913     -5875.2803761773 -3.12E-04
    27 OT DIIS     0.10E+00   24.9     0.00000900     -5875.2806837063 -3.08E-04
    28 OT DIIS     0.10E+00   25.1     0.00000889     -5875.2810009051 -3.17E-04
    29 OT DIIS     0.10E+00   24.3     0.00000879     -5875.2812634820 -2.63E-04
    30 OT DIIS     0.10E+00   19.1     0.00000868     -5875.2815382378 -2.75E-04
    31 OT DIIS     0.10E+00   19.6     0.00000859     -5875.2817928157 -2.55E-04
    32 OT DIIS     0.10E+00   19.3     0.00000849     -5875.2820779918 -2.85E-04
    33 OT DIIS     0.10E+00   24.1     0.00000839     -5875.2823590657 -2.81E-04
    34 OT DIIS     0.10E+00   22.0     0.00000830     -5875.2826217017 -2.63E-04
    35 OT DIIS     0.10E+00   24.2     0.00000821     -5875.2828930468 -2.71E-04
    36 OT DIIS     0.10E+00   21.0     0.00000811     -5875.2832100097 -3.17E-04
    37 OT DIIS     0.10E+00   18.5     0.00000801     -5875.2835071379 -2.97E-04
    38 OT DIIS     0.10E+00   19.2     0.00000790     -5875.2838136511 -3.07E-04
    39 OT DIIS     0.10E+00   19.1     0.00000780     -5875.2840866214 -2.73E-04
    40 OT DIIS     0.10E+00   19.7     0.00000769     -5875.2843816986 -2.95E-04
    41 OT DIIS     0.10E+00   25.5     0.00000759     -5875.2846418464 -2.60E-04
    42 OT DIIS     0.10E+00   18.7     0.00000750     -5875.2848924949 -2.51E-04
    43 OT DIIS     0.10E+00   19.5     0.00000740     -5875.2851324353 -2.40E-04
    44 OT DIIS     0.10E+00   19.9     0.00000731     -5875.2853765597 -2.44E-04
    45 OT DIIS     0.10E+00   23.8     0.00000723     -5875.2855822201 -2.06E-04
    46 OT DIIS     0.10E+00   23.9     0.00000715     -5875.2857782542 -1.96E-04
    47 OT DIIS     0.10E+00   22.7     0.00000707     -5875.2859664810 -1.88E-04
    48 OT DIIS     0.10E+00   26.5     0.00000699     -5875.2861581640 -1.92E-04
    49 OT DIIS     0.10E+00   19.9     0.00000692     -5875.2863179363 -1.60E-04
    50 OT DIIS     0.10E+00   18.9     0.00000686     -5875.2864678585 -1.50E-04
    51 OT DIIS     0.10E+00   20.6     0.00000680     -5875.2866191681 -1.51E-04
    52 OT DIIS     0.10E+00   24.2     0.00000675     -5875.2867822443 -1.63E-04
    53 OT DIIS     0.10E+00   24.5     0.00000669     -5875.2869312477 -1.49E-04
    54 OT DIIS     0.10E+00   25.0     0.00000664     -5875.2870786989 -1.47E-04
    55 OT DIIS     0.10E+00   19.3     0.00000658     -5875.2872214595 -1.43E-04
    56 OT DIIS     0.10E+00   19.3     0.00000652     -5875.2873943861 -1.73E-04
    57 OT DIIS     0.10E+00   19.6     0.00000647     -5875.2875487297 -1.54E-04
    58 OT DIIS     0.10E+00   18.9     0.00000641     -5875.2877091221 -1.60E-04
    59 OT DIIS     0.10E+00   20.7     0.00000636     -5875.2878682151 -1.59E-04
    60 OT DIIS     0.10E+00   22.1     0.00000630     -5875.2880319496 -1.64E-04
    61 OT DIIS     0.10E+00   20.0     0.00000625     -5875.2881875115 -1.56E-04
    62 OT DIIS     0.10E+00   20.1     0.00000619     -5875.2883485343 -1.61E-04
    63 OT DIIS     0.10E+00   22.0     0.00000613     -5875.2885035760 -1.55E-04
    64 OT DIIS     0.10E+00   24.4     0.00000608     -5875.2886667242 -1.63E-04
    65 OT DIIS     0.10E+00   23.4     0.00000603     -5875.2887931688 -1.26E-04
    66 OT DIIS     0.10E+00   23.4     0.00000600     -5875.2889064872 -1.13E-04
    67 OT DIIS     0.10E+00   19.8     0.00000597     -5875.2890043208 -9.78E-05
    68 OT DIIS     0.10E+00   19.2     0.00000596     -5875.2890748392 -7.05E-05
    69 OT DIIS     0.10E+00   20.0     0.00000596     -5875.2891177921 -4.30E-05
    70 OT DIIS     0.10E+00   18.8     0.00000596     -5875.2891389777 -2.12E-05
    71 OT DIIS     0.10E+00   21.1     0.00000596     -5875.2891429109 -3.93E-06
    72 OT DIIS     0.10E+00   25.7     0.00000596     -5875.2891668022 -2.39E-05
    73 OT DIIS     0.10E+00   22.4     0.00000595     -5875.2892216071 -5.48E-05
    74 OT DIIS     0.10E+00   17.1     0.00000595     -5875.2892543549 -3.27E-05
    75 OT SD       0.10E+00   19.1     0.00000595     -5875.2892612565 -6.90E-06
    76 OT SD       0.10E+00   19.7     0.00000596     -5875.2893006474 -3.94E-05
    77 OT SD       0.10E+00   20.7     0.00000598     -5875.2893401887 -3.95E-05
    78 OT DIIS     0.10E+00   24.7     0.00000601     -5875.2893799798 -3.98E-05
    79 OT DIIS     0.10E+00   25.3     0.00000579     -5875.2900504081 -6.70E-04
    80 OT DIIS     0.10E+00   25.9     0.00000557     -5875.2902277677 -1.77E-04
    81 OT DIIS     0.10E+00   19.0     0.00000544     -5875.2907149639 -4.87E-04
    82 OT DIIS     0.10E+00   18.9     0.00000546     -5875.2915583905 -8.43E-04
    83 OT DIIS     0.10E+00   19.5     0.00000504     -5875.2919182737 -3.60E-04
    84 OT DIIS     0.10E+00   20.3     0.00000661     -5875.2928757148 -9.57E-04
    85 OT SD       0.10E+00   23.1     0.00000707     -5875.2929138599 -3.81E-05
    86 OT SD       0.10E+00   18.3     0.00000664     -5875.2929413112 -2.75E-05
    87 OT DIIS     0.10E+00   19.5     0.00000701     -5875.2929632428 -2.19E-05
    88 OT DIIS     0.10E+00   19.6     0.00000471     -5875.2931235135 -1.60E-04
    89 OT DIIS     0.10E+00   20.5     0.00000438     -5875.2932618679 -1.38E-04
    90 OT DIIS     0.10E+00   21.5     0.00000431     -5875.2934701184 -2.08E-04
    91 OT DIIS     0.10E+00   24.5     0.00000428     -5875.2936532686 -1.83E-04
    92 OT DIIS     0.10E+00   25.5     0.00000426     -5875.2936725282 -1.93E-05
    93 OT DIIS     0.10E+00   19.1     0.00000426     -5875.2936942521 -2.17E-05
    94 OT DIIS     0.10E+00   19.1     0.00000425     -5875.2937218252 -2.76E-05
    95 OT DIIS     0.10E+00   19.2     0.00000425     -5875.2937416010 -1.98E-05
    96 OT DIIS     0.10E+00   19.7     0.00000423     -5875.2937602006 -1.86E-05
    97 OT DIIS     0.10E+00   20.1     0.00000420     -5875.2937625341 -2.33E-06
    98 OT DIIS     0.10E+00   20.8     0.00000417     -5875.2937646837 -2.15E-06
    99 OT SD       0.10E+00   18.5     0.00000417     -5875.2937736840 -9.00E-06
   100 OT SD       0.10E+00   19.1     0.00000419     -5875.2937930031 -1.93E-05
   101 OT SD       0.10E+00   19.0     0.00000422     -5875.2938124925 -1.95E-05
   102 OT SD       0.10E+00   20.5     0.00000426     -5875.2938322311 -1.97E-05
   103 OT SD       0.10E+00   23.6     0.00000432     -5875.2938523051 -2.01E-05
   104 OT SD       0.10E+00   21.8     0.00000439     -5875.2938728095 -2.05E-05
   105 OT DIIS     0.10E+00   19.6     0.00000448     -5875.2938938504 -2.10E-05
   106 OT DIIS     0.10E+00   21.1     0.00000382     -5875.2939482155 -5.44E-05
   107 OT DIIS     0.10E+00   21.0     0.00000378     -5875.2939830058 -3.48E-05
   108 OT DIIS     0.10E+00   24.9     0.00000375     -5875.2940418776 -5.89E-05
   109 OT DIIS     0.10E+00   22.4     0.00000373     -5875.2940875131 -4.56E-05
   110 OT DIIS     0.10E+00   25.3     0.00000367     -5875.2942534983 -1.66E-04
   111 OT DIIS     0.10E+00   20.0     0.00000365     -5875.2943530110 -9.95E-05
   112 OT DIIS     0.10E+00   18.9     0.00000364     -5875.2944040968 -5.11E-05
   113 OT DIIS     0.10E+00   19.5     0.00000363     -5875.2944410083 -3.69E-05
   114 OT SD       0.10E+00   19.6     0.00000363     -5875.2944504994 -9.49E-06
   115 OT SD       0.10E+00   22.6     0.00000364     -5875.2944651816 -1.47E-05
   116 OT DIIS     0.10E+00   20.2     0.00000365     -5875.2944799295 -1.47E-05
   117 OT DIIS     0.10E+00   25.3     0.00000360     -5875.2945053189 -2.54E-05
   118 OT DIIS     0.10E+00   18.5     0.00000356     -5875.2945867233 -8.14E-05
   119 OT DIIS     0.10E+00   18.5     0.00000353     -5875.2946836336 -9.69E-05
   120 OT DIIS     0.10E+00   19.3     0.00000351     -5875.2947925230 -1.09E-04

  Leaving inner SCF loop after reaching   120 steps.


  Electronic density on regular grids:      -2176.0000000186       -0.0000000186
  Core density on regular grids:             2175.9999999991       -0.0000000009
  Total charge density on r-space grids:       -0.0000000196
  Total charge density g-space grids:          -0.0000000196

  Overlap energy of the core charge distribution:               0.00001544226867
  Self energy of the core charge distribution:             -14262.87427392135396
  Core Hamiltonian energy:                                   3826.63944072330150
  Hartree energy:                                            5727.38164673112351
  Exchange-correlation energy:                              -1163.23404615720074
  Dispersion energy:                                           -3.20757534115797

  Total energy:                                             -5875.29479252301917

  outer SCF iter =    2 RMS gradient =   0.35E-05 energy =      -5875.2947925230

  ----------------------------------- OT ---------------------------------------
  Minimizer      : DIIS                : direct inversion
                                         in the iterative subspace
                                         using   7 DIIS vectors
                                         safer DIIS on
  Preconditioner : FULL_SINGLE_INVERSE : inversion of 
                                         H + eS - 2*(Sc)(c^T*H*c+const)(Sc)^T
  Precond_solver : INVERSE_UPDATE
  stepsize       :    0.10000000                  energy_gap     :    0.10000000
  eps_taylor     :   0.10000E-15                  max_taylor     :             4
  ----------------------------------- OT ---------------------------------------

  Step     Update method      Time    Convergence         Total energy    Change
  ------------------------------------------------------------------------------


     Lanczos converged:  T threshold:   0.100E-02
     Est. extremal eigenvalues:    0.723E+01   0.964E-01
     Est. condition number :    0.750E+02
     Hotelling iter   1 1.00000000   0.951E+00       3.726   142727.965
     Hotelling iter   2 1.00000000   0.821E+00       2.727   194999.919
     Hotelling iter   3 1.00000000   0.484E+00       2.322   229088.795
     Hotelling iter   4 1.00000000   0.102E+00       2.265   234816.317



     Lanczos converged:  T threshold:   0.100E-02
     Est. extremal eigenvalues:    0.723E+01   0.963E-01
     Est. condition number :    0.750E+02
     Hotelling iter   1 1.00000000   0.951E+00       3.861   137733.011
     Hotelling iter   2 1.00000000   0.821E+00       2.639   201546.410
     Hotelling iter   3 1.00000000   0.484E+00       2.368   224614.429
     Hotelling iter   4 1.00000000   0.102E+00       2.342   227073.828

     1 OT DIIS     0.10E+00   94.2     0.00000410     -5875.2950529070 -2.60E-04
     2 OT DIIS     0.10E+00   16.6     0.00000421     -5875.2950709165 -1.80E-05
     3 OT DIIS     0.10E+00   18.1     0.00000404     -5875.2950775142 -6.60E-06
     4 OT DIIS     0.10E+00   17.5     0.00000405     -5875.2951023171 -2.48E-05
     5 OT SD       0.10E+00   18.2     0.00000405     -5875.2951112250 -8.91E-06
     6 OT SD       0.10E+00   18.6     0.00000406     -5875.2951294244 -1.82E-05
     7 OT SD       0.10E+00   20.4     0.00000408     -5875.2951477407 -1.83E-05
     8 OT SD       0.10E+00   18.3     0.00000411     -5875.2951662307 -1.85E-05
     9 OT SD       0.10E+00   18.9     0.00000418     -5875.2951849410 -1.87E-05
    10 OT SD       0.10E+00   18.1     0.00000435     -5875.2952038437 -1.89E-05
    11 OT SD       0.10E+00   19.8     0.00000492     -5875.2952225303 -1.87E-05
    12 OT DIIS     0.10E+00   18.2     0.00000682     -5875.2952387920 -1.63E-05
    13 OT DIIS     0.10E+00   18.4     0.00000388     -5875.2952598258 -2.10E-05
    14 OT DIIS     0.10E+00   18.4     0.00000386     -5875.2952727411 -1.29E-05
    15 OT DIIS     0.10E+00   19.6     0.00000386     -5875.2953010415 -2.83E-05
    16 OT SD       0.10E+00   16.0     0.00000386     -5875.2953172786 -1.62E-05
    17 OT SD       0.10E+00   17.4     0.00000387     -5875.2953338029 -1.65E-05
    18 OT SD       0.10E+00   19.4     0.00000388     -5875.2953504041 -1.66E-05
    19 OT SD       0.10E+00   17.8     0.00000392     -5875.2953671136 -1.67E-05
    20 OT SD       0.10E+00   18.6     0.00000401     -5875.2953839243 -1.68E-05
    21 OT SD       0.10E+00   18.2     0.00000433     -5875.2954006337 -1.67E-05
    22 OT SD       0.10E+00   18.0     0.00000551     -5875.2954160992 -1.55E-05
    23 OT SD       0.10E+00   17.3     0.00000913     -5875.2954247224 -8.62E-06
    24 OT DIIS     0.10E+00   19.9     0.00001822     -5875.2953996744  2.50E-05
    25 OT DIIS     0.10E+00   19.8     0.00000376     -5875.2954248327 -2.52E-05
    26 OT DIIS     0.10E+00   18.7     0.00000375     -5875.2954431277 -1.83E-05
    27 OT DIIS     0.10E+00   17.6     0.00000375     -5875.2954748654 -3.17E-05
    28 OT SD       0.10E+00   18.8     0.00000375     -5875.2954897786 -1.49E-05
    29 OT SD       0.10E+00   17.6     0.00000375     -5875.2955053615 -1.56E-05
    30 OT SD       0.10E+00   20.5     0.00000376     -5875.2955209928 -1.56E-05
    31 OT SD       0.10E+00   19.6     0.00000378     -5875.2955366977 -1.57E-05
    32 OT DIIS     0.10E+00   20.3     0.00000382     -5875.2955524908 -1.58E-05
    33 OT SD       0.10E+00   18.0     0.00000374     -5875.2956166258 -6.41E-05
    34 OT DIIS     0.10E+00   17.5     0.00000400     -5875.2956308779 -1.43E-05
    35 OT DIIS     0.10E+00   17.9     0.00000363     -5875.2959019884 -2.71E-04
    36 OT DIIS     0.10E+00   19.0     0.00000356     -5875.2959852053 -8.32E-05
    37 OT DIIS     0.10E+00   17.1     0.00000384     -5875.2963154951 -3.30E-04
    38 OT SD       0.10E+00   19.9     0.00000376     -5875.2963707706 -5.53E-05
    39 OT DIIS     0.10E+00   18.0     0.00000436     -5875.2963829447 -1.22E-05
    40 OT DIIS     0.10E+00   18.5     0.00000349     -5875.2964006731 -1.77E-05
    41 OT DIIS     0.10E+00   19.6     0.00000344     -5875.2964338460 -3.32E-05
    42 OT DIIS     0.10E+00   17.7     0.00000344     -5875.2964417055 -7.86E-06
    43 OT SD       0.10E+00   17.9     0.00000344     -5875.2964560543 -1.43E-05
    44 OT SD       0.10E+00   17.1     0.00000348     -5875.2964691139 -1.31E-05
    45 OT SD       0.10E+00   19.2     0.00000358     -5875.2964822881 -1.32E-05
    46 OT SD       0.10E+00   19.1     0.00000384     -5875.2964954913 -1.32E-05
    47 OT SD       0.10E+00   18.3     0.00000455     -5875.2965082521 -1.28E-05
    48 OT SD       0.10E+00   19.9     0.00000636     -5875.2965187462 -1.05E-05
    49 OT SD       0.10E+00   17.6     0.00001051     -5875.2965201656 -1.42E-06
    50 OT SD       0.10E+00   18.8     0.00001917     -5875.2964869074  3.33E-05
    51 OT DIIS     0.10E+00   18.7     0.00003664     -5875.2963202130  1.67E-04
    52 OT SD       0.10E+00   17.8     0.00000328     -5875.2964271493 -1.07E-04
    53 OT SD       0.10E+00   18.5     0.00000330     -5875.2964390235 -1.19E-05
    54 OT SD       0.10E+00   18.3     0.00000338     -5875.2964509082 -1.19E-05
    55 OT SD       0.10E+00   18.2     0.00000365     -5875.2964626474 -1.17E-05
    56 OT SD       0.10E+00   18.3     0.00000458     -5875.2964734715 -1.08E-05
    57 OT SD       0.10E+00   19.6     0.00000735     -5875.2964799305 -6.46E-06
    58 OT DIIS     0.10E+00   19.3     0.00001408     -5875.2964667026  1.32E-05
    59 OT DIIS     0.10E+00   19.5     0.00000322     -5875.2964509166  1.58E-05
    60 OT DIIS     0.10E+00   20.0     0.00000320     -5875.2964681758 -1.73E-05
    61 OT SD       0.10E+00   17.3     0.00000320     -5875.2964852705 -1.71E-05
    62 OT SD       0.10E+00   18.4     0.00000321     -5875.2964966558 -1.14E-05
    63 OT SD       0.10E+00   19.1     0.00000324     -5875.2965080665 -1.14E-05
    64 OT SD       0.10E+00   17.2     0.00000333     -5875.2965194635 -1.14E-05
    65 OT SD       0.10E+00   16.9     0.00000365     -5875.2965306346 -1.12E-05
    66 OT SD       0.10E+00   19.1     0.00000476     -5875.2965406237 -9.99E-06
    67 OT SD       0.10E+00   19.8     0.00000791     -5875.2965452170 -4.59E-06
    68 OT DIIS     0.10E+00   17.9     0.00001539     -5875.2965258762  1.93E-05
    69 OT DIIS     0.10E+00   18.3     0.00000316     -5875.2965294340 -3.56E-06
    70 OT DIIS     0.10E+00   18.9     0.00000316     -5875.2965301596 -7.26E-07
    71 OT SD       0.10E+00   18.7     0.00000316     -5875.2965317115 -1.55E-06
    72 OT SD       0.10E+00   18.7     0.00000316     -5875.2965427759 -1.11E-05
    73 OT SD       0.10E+00   18.7     0.00000318     -5875.2965538750 -1.11E-05
    74 OT SD       0.10E+00   20.2     0.00000322     -5875.2965650052 -1.11E-05
    75 OT SD       0.10E+00   18.9     0.00000335     -5875.2965761021 -1.11E-05
    76 OT SD       0.10E+00   18.9     0.00000385     -5875.2965868169 -1.07E-05
    77 OT SD       0.10E+00   18.2     0.00000554     -5875.2965954821 -8.67E-06
    78 OT DIIS     0.10E+00   20.7     0.00001018     -5875.2965942693  1.21E-06
    79 OT SD       0.10E+00   18.6     0.00000312     -5875.2965911356  3.13E-06
    80 OT DIIS     0.10E+00   18.6     0.00000313     -5875.2966018825 -1.07E-05
    81 OT SD       0.10E+00   17.8     0.00000312     -5875.2966067770 -4.89E-06
    82 OT SD       0.10E+00   20.6     0.00000312     -5875.2966175618 -1.08E-05
    83 OT SD       0.10E+00   19.7     0.00000313     -5875.2966283772 -1.08E-05
    84 OT SD       0.10E+00   18.2     0.00000315     -5875.2966392275 -1.09E-05
    85 OT SD       0.10E+00   18.2     0.00000321     -5875.2966500891 -1.09E-05
    86 OT SD       0.10E+00   18.1     0.00000346     -5875.2966608065 -1.07E-05
    87 OT SD       0.10E+00   20.4     0.00000441     -5875.2966705890 -9.78E-06
    88 OT SD       0.10E+00   19.0     0.00000741     -5875.2966756122 -5.02E-06
    89 OT DIIS     0.10E+00   18.5     0.00001496     -5875.2966575230  1.81E-05
    90 OT DIIS     0.10E+00   18.2     0.00000308     -5875.2966368109  2.07E-05
    91 OT SD       0.10E+00   18.7     0.00000308     -5875.2966373894 -5.79E-07
    92 OT SD       0.10E+00   18.1     0.00000309     -5875.2966479242 -1.05E-05
    93 OT SD       0.10E+00   18.9     0.00000310     -5875.2966584785 -1.06E-05
    94 OT SD       0.10E+00   16.9     0.00000313     -5875.2966690486 -1.06E-05
    95 OT SD       0.10E+00   18.8     0.00000323     -5875.2966795863 -1.05E-05
    96 OT SD       0.10E+00   18.1     0.00000360     -5875.2966898509 -1.03E-05
    97 OT SD       0.10E+00   19.3     0.00000484     -5875.2966987671 -8.92E-06
    98 OT SD       0.10E+00   18.7     0.00000830     -5875.2967015529 -2.79E-06
    99 OT DIIS     0.10E+00   18.2     0.00001643     -5875.2966767632  2.48E-05
   100 OT SD       0.10E+00   19.0     0.00000305     -5875.2967114944 -3.47E-05
   101 OT SD       0.10E+00   18.6     0.00000307     -5875.2967217806 -1.03E-05
   102 OT SD       0.10E+00   18.1     0.00000314     -5875.2967320310 -1.03E-05
   103 OT SD       0.10E+00   18.3     0.00000339     -5875.2967420920 -1.01E-05
   104 OT SD       0.10E+00   18.1     0.00000428     -5875.2967512563 -9.16E-06
   105 OT SD       0.10E+00   18.2     0.00000690     -5875.2967564288 -5.17E-06
   106 OT SD       0.10E+00   18.6     0.00001326     -5875.2967439806  1.24E-05
   107 OT DIIS     0.10E+00   17.4     0.00002722     -5875.2966535173  9.05E-05
   108 OT DIIS     0.10E+00   17.4     0.00000302     -5875.2966999584 -4.64E-05
   109 OT DIIS     0.10E+00   18.7     0.00000302     -5875.2967087517 -8.79E-06
   110 OT DIIS     0.10E+00   18.4     0.00000302     -5875.2967192144 -1.05E-05
   111 OT DIIS     0.10E+00   19.5     0.00000301     -5875.2967231495 -3.94E-06
   112 OT SD       0.10E+00   18.1     0.00000302     -5875.2967241494 -1.00E-06
   113 OT SD       0.10E+00   17.5     0.00000302     -5875.2967342471 -1.01E-05
   114 OT SD       0.10E+00   18.6     0.00000302     -5875.2967443567 -1.01E-05
   115 OT SD       0.10E+00   18.4     0.00000304     -5875.2967544796 -1.01E-05
   116 OT SD       0.10E+00   18.0     0.00000309     -5875.2967645931 -1.01E-05
   117 OT DIIS     0.10E+00   19.0     0.00000332     -5875.2967745506 -9.96E-06
   118 OT DIIS     0.10E+00   19.1     0.00000300     -5875.2967809760 -6.43E-06
   119 OT DIIS     0.10E+00   17.9     0.00000298     -5875.2967951840 -1.42E-05
   120 OT DIIS     0.10E+00   20.2     0.00000298     -5875.2968321816 -3.70E-05

  Leaving inner SCF loop after reaching   120 steps.


  Electronic density on regular grids:      -2176.0000001195       -0.0000001195
  Core density on regular grids:             2175.9999999991       -0.0000000009
  Total charge density on r-space grids:       -0.0000001205
  Total charge density g-space grids:          -0.0000001205

  Overlap energy of the core charge distribution:               0.00001544226867
  Self energy of the core charge distribution:             -14262.87427392135396
  Core Hamiltonian energy:                                   3826.63242831951720
  Hartree energy:                                            5727.38548080582768
  Exchange-correlation energy:                              -1163.23290748669547
  Dispersion energy:                                           -3.20757534115797

  Total energy:                                             -5875.29683218159425

  outer SCF iter =    3 RMS gradient =   0.30E-05 energy =      -5875.2968321816

  ----------------------------------- OT ---------------------------------------
  Minimizer      : DIIS                : direct inversion
                                         in the iterative subspace
                                         using   7 DIIS vectors
                                         safer DIIS on
  Preconditioner : FULL_SINGLE_INVERSE : inversion of 
                                         H + eS - 2*(Sc)(c^T*H*c+const)(Sc)^T
  Precond_solver : INVERSE_UPDATE
  stepsize       :    0.10000000                  energy_gap     :    0.10000000
  eps_taylor     :   0.10000E-15                  max_taylor     :             4
  ----------------------------------- OT ---------------------------------------

  Step     Update method      Time    Convergence         Total energy    Change
  ------------------------------------------------------------------------------


     Lanczos converged:  T threshold:   0.100E-02
     Est. extremal eigenvalues:    0.174E+01   0.526E+00
     Est. condition number :    0.330E+01
     Hotelling iter   1 1.00000000   0.312E+00       3.752   141709.723



     Lanczos converged:  T threshold:   0.100E-02
     Est. extremal eigenvalues:    0.174E+01   0.527E+00
     Est. condition number :    0.330E+01
     Hotelling iter   1 1.00000000   0.311E+00       3.179   167231.644

     1 OT DIIS     0.10E+00   72.6     0.00000277     -5875.2968566787 -2.45E-05
     2 OT DIIS     0.10E+00   17.1     0.00000277     -5875.2968651454 -8.47E-06
     3 OT SD       0.10E+00   17.5     0.00000277     -5875.2968667414 -1.60E-06
     4 OT SD       0.10E+00   17.8     0.00000278     -5875.2968752723 -8.53E-06
     5 OT SD       0.10E+00   20.0     0.00000280     -5875.2968838434 -8.57E-06
     6 OT SD       0.10E+00   18.2     0.00000283     -5875.2968924516 -8.61E-06
     7 OT SD       0.10E+00   18.1     0.00000294     -5875.2969010562 -8.60E-06
     8 OT SD       0.10E+00   19.4     0.00000327     -5875.2969094749 -8.42E-06
     9 OT SD       0.10E+00   18.8     0.00000424     -5875.2969169946 -7.52E-06
    10 OT SD       0.10E+00   19.8     0.00000672     -5875.2969208943 -3.90E-06
    11 OT SD       0.10E+00   18.0     0.00001212     -5875.2969108531  1.00E-05
    12 OT DIIS     0.10E+00   18.0     0.00002307     -5875.2968475988  6.33E-05
    13 OT SD       0.10E+00   17.5     0.00000273     -5875.2968234359  2.42E-05
    14 OT DIIS     0.10E+00   14.6     0.00000273     -5875.2968316956 -8.26E-06
    15 OT SD       0.10E+00   15.1     0.00000274     -5875.2968401355 -8.44E-06
    16 OT SD       0.10E+00   17.2     0.00000275     -5875.2968484011 -8.27E-06
    17 OT SD       0.10E+00   16.5     0.00000279     -5875.2968566500 -8.25E-06
    18 OT SD       0.10E+00   16.7     0.00000293     -5875.2968648144 -8.16E-06
    19 OT SD       0.10E+00   17.7     0.00000338     -5875.2968726291 -7.81E-06
    20 OT SD       0.10E+00   18.4     0.00000464     -5875.2968790976 -6.47E-06
    21 OT SD       0.10E+00   18.4     0.00000766     -5875.2968804976 -1.40E-06
    22 OT DIIS     0.10E+00   16.5     0.00001405     -5875.2968627727  1.77E-05
    23 OT DIIS     0.10E+00   18.1     0.00000271     -5875.2968807785 -1.80E-05
    24 OT DIIS     0.10E+00   16.2     0.00000271     -5875.2968871644 -6.39E-06
    25 OT SD       0.10E+00   15.5     0.00000271     -5875.2969111863 -2.40E-05
    26 OT SD       0.10E+00   17.5     0.00000271     -5875.2969193190 -8.13E-06
    27 OT SD       0.10E+00   16.7     0.00000272     -5875.2969274676 -8.15E-06
    28 OT SD       0.10E+00   17.9     0.00000276     -5875.2969356212 -8.15E-06
    29 OT SD       0.10E+00   16.6     0.00000288     -5875.2969437195 -8.10E-06
    30 OT SD       0.10E+00   18.4     0.00000331     -5875.2969515005 -7.78E-06
    31 OT SD       0.10E+00   18.0     0.00000464     -5875.2969578693 -6.37E-06
    32 OT SD       0.10E+00   17.5     0.00000807     -5875.2969582745 -4.05E-07
    33 OT DIIS     0.10E+00   18.3     0.00001569     -5875.2969336868  2.46E-05
    34 OT SD       0.10E+00   16.8     0.00000268     -5875.2969238551  9.83E-06
    35 OT SD       0.10E+00   15.9     0.00000269     -5875.2969318417 -7.99E-06
    36 OT SD       0.10E+00   19.3     0.00000271     -5875.2969398332 -7.99E-06
    37 OT SD       0.10E+00   17.2     0.00000277     -5875.2969478067 -7.97E-06
    38 OT SD       0.10E+00   17.0     0.00000297     -5875.2969556568 -7.85E-06
    39 OT SD       0.10E+00   17.7     0.00000361     -5875.2969629650 -7.31E-06
    40 OT SD       0.10E+00   17.8     0.00000541     -5875.2969680900 -5.13E-06
    41 OT DIIS     0.10E+00   16.7     0.00000959     -5875.2969646151  3.47E-06
    42 OT DIIS     0.10E+00   17.6     0.00000266     -5875.2969706861 -6.07E-06
    43 OT DIIS     0.10E+00   16.9     0.00000266     -5875.2969779297 -7.24E-06
    44 OT DIIS     0.10E+00   17.5     0.00000266     -5875.2969783829 -4.53E-07
    45 OT SD       0.10E+00   17.9     0.00000266     -5875.2969797111 -1.33E-06
    46 OT SD       0.10E+00   21.5     0.00000266     -5875.2969875761 -7.86E-06
    47 OT SD       0.10E+00   16.6     0.00000267     -5875.2969954579 -7.88E-06
    48 OT SD       0.10E+00   17.6     0.00000268     -5875.2970033592 -7.90E-06
    49 OT SD       0.10E+00   17.2     0.00000270     -5875.2970112766 -7.92E-06
    50 OT SD       0.10E+00   17.8     0.00000277     -5875.2970191787 -7.90E-06
    51 OT SD       0.10E+00   17.9     0.00000304     -5875.2970269171 -7.74E-06
    52 OT SD       0.10E+00   16.6     0.00000394     -5875.2970338416 -6.92E-06
    53 OT SD       0.10E+00   16.0     0.00000649     -5875.2970371547 -3.31E-06
    54 OT SD       0.10E+00   18.0     0.00001249     -5875.2970247820  1.24E-05
    55 OT DIIS     0.10E+00   16.8     0.00002546     -5875.2969443895  8.04E-05
    56 OT SD       0.10E+00   18.1     0.00000264     -5875.2969777759 -3.34E-05
    57 OT SD       0.10E+00   17.1     0.00000265     -5875.2969855222 -7.75E-06
    58 OT SD       0.10E+00   17.8     0.00000265     -5875.2969932726 -7.75E-06
    59 OT SD       0.10E+00   20.2     0.00000268     -5875.2970010203 -7.75E-06
    60 OT SD       0.10E+00   18.0     0.00000277     -5875.2970087251 -7.70E-06
    61 OT SD       0.10E+00   17.2     0.00000306     -5875.2970162242 -7.50E-06
    62 OT SD       0.10E+00   18.2     0.00000397     -5875.2970228800 -6.66E-06
    63 OT DIIS     0.10E+00   17.6     0.00000633     -5875.2970262190 -3.34E-06
    64 OT SD       0.10E+00   17.0     0.00000263     -5875.2970595275 -3.33E-05
    65 OT SD       0.10E+00   17.5     0.00000265     -5875.2970671196 -7.59E-06
    66 OT SD       0.10E+00   17.3     0.00000272     -5875.2970746774 -7.56E-06
    67 OT SD       0.10E+00   17.1     0.00000297     -5875.2970820685 -7.39E-06
    68 OT SD       0.10E+00   17.3     0.00000376     -5875.2970887525 -6.68E-06
    69 OT SD       0.10E+00   17.2     0.00000592     -5875.2970925929 -3.84E-06
    70 OT SD       0.10E+00   21.6     0.00001083     -5875.2970850957  7.50E-06
    71 OT DIIS     0.10E+00   19.1     0.00002108     -5875.2970322861  5.28E-05
    72 OT DIIS     0.10E+00   16.5     0.00000260     -5875.2970376356 -5.35E-06
    73 OT DIIS     0.10E+00   19.5     0.00000260     -5875.2970428154 -5.18E-06
    74 OT DIIS     0.10E+00   17.3     0.00000260     -5875.2970498486 -7.03E-06
    75 OT SD       0.10E+00   16.6     0.00000260     -5875.2970504448 -5.96E-07
    76 OT SD       0.10E+00   20.2     0.00000260     -5875.2970579312 -7.49E-06
    77 OT SD       0.10E+00   17.6     0.00000260     -5875.2970654261 -7.49E-06
    78 OT SD       0.10E+00   20.7     0.00000260     -5875.2970729331 -7.51E-06
    79 OT SD       0.10E+00   16.3     0.00000261     -5875.2970804537 -7.52E-06
    80 OT DIIS     0.10E+00   17.3     0.00000264     -5875.2970879812 -7.53E-06
    81 OT DIIS     0.10E+00   20.0     0.00000258     -5875.2971103017 -2.23E-05
    82 OT DIIS     0.10E+00   17.5     0.00000257     -5875.2971368573 -2.66E-05
    83 OT SD       0.10E+00   16.5     0.00000257     -5875.2971497641 -1.29E-05
    84 OT SD       0.10E+00   17.5     0.00000258     -5875.2971571163 -7.35E-06
    85 OT DIIS     0.10E+00   17.5     0.00000259     -5875.2971644873 -7.37E-06
    86 OT DIIS     0.10E+00   18.5     0.00000256     -5875.2971745437 -1.01E-05
    87 OT DIIS     0.10E+00   19.4     0.00000260     -5875.2973339506 -1.59E-04
    88 OT SD       0.10E+00   18.5     0.00000338     -5875.2976181091 -2.84E-04
    89 OT DIIS     0.10E+00   17.4     0.00000446     -5875.2976229273 -4.82E-06
    90 OT DIIS     0.10E+00   18.1     0.00000283     -5875.2977157286 -9.28E-05
    91 OT SD       0.10E+00   17.9     0.00000568     -5875.2979812201 -2.65E-04
    92 OT SD       0.10E+00   19.1     0.00000832     -5875.2979809232  2.97E-07
    93 OT DIIS     0.10E+00   18.5     0.00001472     -5875.2979580582  2.29E-05
    94 OT DIIS     0.10E+00   17.5     0.00000238     -5875.2979877693 -2.97E-05
    95 OT SD       0.10E+00   19.3     0.00000241     -5875.2980698432 -8.21E-05
    96 OT DIIS     0.10E+00   18.0     0.00000272     -5875.2980749168 -5.07E-06
    97 OT SD       0.10E+00   16.8     0.00000220     -5875.2980953109 -2.04E-05
    98 OT SD       0.10E+00   17.9     0.00000226     -5875.2981005857 -5.27E-06
    99 OT SD       0.10E+00   16.6     0.00000245     -5875.2981057996 -5.21E-06
   100 OT SD       0.10E+00   20.1     0.00000310     -5875.2981106157 -4.82E-06
   101 OT SD       0.10E+00   16.6     0.00000496     -5875.2981134879 -2.87E-06
   102 OT SD       0.10E+00   17.6     0.00000943     -5875.2981076284  5.86E-06
   103 OT DIIS     0.10E+00   18.9     0.00001919     -5875.2980633286  4.43E-05
   104 OT DIIS     0.10E+00   17.7     0.00000208     -5875.2980752859 -1.20E-05
   105 OT DIIS     0.10E+00   17.9     0.00000208     -5875.2980792613 -3.98E-06
   106 OT SD       0.10E+00   18.3     0.00000208     -5875.2980807661 -1.50E-06
   107 OT SD       0.10E+00   17.9     0.00000209     -5875.2980855794 -4.81E-06
   108 OT SD       0.10E+00   16.8     0.00000211     -5875.2980904364 -4.86E-06
   109 OT SD       0.10E+00   19.2     0.00000214     -5875.2980953463 -4.91E-06
   110 OT SD       0.10E+00   16.7     0.00000222     -5875.2981003007 -4.95E-06
   111 OT SD       0.10E+00   17.4     0.00000245     -5875.2981052214 -4.92E-06
   112 OT SD       0.10E+00   16.6     0.00000314     -5875.2981097489 -4.53E-06
   113 OT SD       0.10E+00   17.9     0.00000497     -5875.2981123903 -2.64E-06
   114 OT SD       0.10E+00   17.6     0.00000915     -5875.2981070561  5.33E-06
   115 OT DIIS     0.10E+00   17.6     0.00001797     -5875.2980688653  3.82E-05
   116 OT SD       0.10E+00   18.6     0.00000202     -5875.2980740001 -5.13E-06
   117 OT SD       0.10E+00   19.3     0.00000203     -5875.2980785386 -4.54E-06
   118 OT SD       0.10E+00   16.5     0.00000204     -5875.2980831019 -4.56E-06
   119 OT SD       0.10E+00   17.3     0.00000206     -5875.2980876930 -4.59E-06
   120 OT SD       0.10E+00   17.7     0.00000213     -5875.2980922977 -4.60E-06

  Leaving inner SCF loop after reaching   120 steps.


  Electronic density on regular grids:      -2176.0000001828       -0.0000001828
  Core density on regular grids:             2175.9999999991       -0.0000000009
  Total charge density on r-space grids:       -0.0000001838
  Total charge density g-space grids:          -0.0000001838

  Overlap energy of the core charge distribution:               0.00001544226867
  Self energy of the core charge distribution:             -14262.87427392135396
  Core Hamiltonian energy:                                   3826.62948582033960
  Hartree energy:                                            5727.38653782320580
  Exchange-correlation energy:                              -1163.23228212100753
  Dispersion energy:                                           -3.20757534115797

  Total energy:                                             -5875.29809229770490

  outer SCF iter =    4 RMS gradient =   0.21E-05 energy =      -5875.2980922977

  ----------------------------------- OT ---------------------------------------
  Minimizer      : DIIS                : direct inversion
                                         in the iterative subspace
                                         using   7 DIIS vectors
                                         safer DIIS on
  Preconditioner : FULL_SINGLE_INVERSE : inversion of 
                                         H + eS - 2*(Sc)(c^T*H*c+const)(Sc)^T
  Precond_solver : INVERSE_UPDATE
  stepsize       :    0.10000000                  energy_gap     :    0.10000000
  eps_taylor     :   0.10000E-15                  max_taylor     :             4
  ----------------------------------- OT ---------------------------------------

  Step     Update method      Time    Convergence         Total energy    Change
  ------------------------------------------------------------------------------


     Lanczos converged:  T threshold:   0.100E-02
     Est. extremal eigenvalues:    0.148E+01   0.416E+00
     Est. condition number :    0.356E+01
     Hotelling iter   1 1.00000000   0.340E+00       3.691   144027.945



     Lanczos converged:  T threshold:   0.100E-02
     Est. extremal eigenvalues:    0.148E+01   0.417E+00
     Est. condition number :    0.356E+01
     Hotelling iter   1 1.00000000   0.340E+00       3.362   158131.481

     1 OT DIIS     0.10E+00   66.9     0.00000232     -5875.2980968310 -4.53E-06
     2 OT DIIS     0.10E+00   17.9     0.00000309     -5875.2981006578 -3.83E-06
     3 OT SD       0.10E+00   17.1     0.00000206     -5875.2981031390 -2.48E-06
     4 OT SD       0.10E+00   17.4     0.00000209     -5875.2981078549 -4.72E-06
     5 OT SD       0.10E+00   18.1     0.00000213     -5875.2981126682 -4.81E-06
     6 OT SD       0.10E+00   17.9     0.00000225     -5875.2981175622 -4.89E-06
     7 OT SD       0.10E+00   20.1     0.00000262     -5875.2981223933 -4.83E-06
     8 OT SD       0.10E+00   18.7     0.00000376     -5875.2981264366 -4.04E-06
     9 OT SD       0.10E+00   18.0     0.00000681     -5875.2981263034  1.33E-07
    10 OT SD       0.10E+00   19.5     0.00001388     -5875.2981063376  2.00E-05
    11 OT DIIS     0.10E+00   19.3     0.00002943     -5875.2979938961  1.12E-04
    12 OT SD       0.10E+00   18.1     0.00000193     -5875.2980503597 -5.65E-05
    13 OT SD       0.10E+00   19.0     0.00000193     -5875.2980544890 -4.13E-06
    14 OT SD       0.10E+00   16.6     0.00000195     -5875.2980586016 -4.11E-06
    15 OT DIIS     0.10E+00   19.7     0.00000200     -5875.2980626840 -4.08E-06
    16 OT SD       0.10E+00   16.4     0.00000193     -5875.2980633260 -6.42E-07
    17 OT SD       0.10E+00   18.2     0.00000193     -5875.2980674545 -4.13E-06
    18 OT SD       0.10E+00   17.6     0.00000193     -5875.2980715956 -4.14E-06
    19 OT SD       0.10E+00   17.0     0.00000194     -5875.2980757551 -4.16E-06
    20 OT SD       0.10E+00   17.5     0.00000196     -5875.2980799374 -4.18E-06
    21 OT SD       0.10E+00   17.3     0.00000199     -5875.2980841395 -4.20E-06
    22 OT SD       0.10E+00   16.5     0.00000212     -5875.2980883218 -4.18E-06
    23 OT SD       0.10E+00   18.2     0.00000256     -5875.2980922772 -3.96E-06
    24 OT SD       0.10E+00   16.5     0.00000398     -5875.2980950309 -2.75E-06
    25 OT SD       0.10E+00   17.2     0.00000762     -5875.2980920554  2.98E-06
    26 OT DIIS     0.10E+00   16.7     0.00001593     -5875.2980622526  2.98E-05
    27 OT SD       0.10E+00   15.8     0.00000190     -5875.2980712243 -8.97E-06
    28 OT SD       0.10E+00   15.0     0.00000191     -5875.2980752367 -4.01E-06
    29 OT SD       0.10E+00   21.0     0.00000193     -5875.2980792573 -4.02E-06
    30 OT SD       0.10E+00   16.9     0.00000198     -5875.2980832711 -4.01E-06
    31 OT SD       0.10E+00   16.5     0.00000217     -5875.2980872054 -3.93E-06
    32 OT SD       0.10E+00   18.2     0.00000279     -5875.2980907458 -3.54E-06
    33 OT SD       0.10E+00   17.2     0.00000454     -5875.2980925557 -1.81E-06
    34 OT SD       0.10E+00   17.5     0.00000866     -5875.2980869131  5.64E-06
    35 OT DIIS     0.10E+00   16.2     0.00001756     -5875.2980490459  3.79E-05
    36 OT SD       0.10E+00   18.0     0.00000188     -5875.2980675507 -1.85E-05
    37 OT SD       0.10E+00   19.0     0.00000188     -5875.2980714714 -3.92E-06
    38 OT SD       0.10E+00   16.7     0.00000189     -5875.2980754004 -3.93E-06
    39 OT SD       0.10E+00   18.1     0.00000193     -5875.2980793308 -3.93E-06
    40 OT SD       0.10E+00   15.9     0.00000205     -5875.2980832210 -3.89E-06
    41 OT SD       0.10E+00   15.6     0.00000246     -5875.2980868835 -3.66E-06
    42 OT SD       0.10E+00   17.5     0.00000373     -5875.2980895003 -2.62E-06
    43 OT SD       0.10E+00   17.4     0.00000690     -5875.2980875146  1.99E-06
    44 OT DIIS     0.10E+00   19.0     0.00001394     -5875.2980653170  2.22E-05
    45 OT SD       0.10E+00   17.4     0.00000186     -5875.2980738737 -8.56E-06
    46 OT SD       0.10E+00   19.4     0.00000186     -5875.2980777224 -3.85E-06
    47 OT SD       0.10E+00   17.5     0.00000187     -5875.2980815784 -3.86E-06
    48 OT SD       0.10E+00   18.3     0.00000189     -5875.2980854400 -3.86E-06
    49 OT SD       0.10E+00   16.1     0.00000194     -5875.2980892903 -3.85E-06
    50 OT SD       0.10E+00   18.1     0.00000214     -5875.2980930494 -3.76E-06
    51 OT SD       0.10E+00   19.9     0.00000283     -5875.2980963594 -3.31E-06
    52 OT SD       0.10E+00   16.9     0.00000479     -5875.2980976340 -1.27E-06
    53 OT SD       0.10E+00   16.8     0.00000944     -5875.2980898004  7.83E-06
    54 OT DIIS     0.10E+00   16.8     0.00001963     -5875.2980410917  4.87E-05
    55 OT SD       0.10E+00   18.0     0.00000185     -5875.2980708324 -2.97E-05
    56 OT SD       0.10E+00   18.2     0.00000185     -5875.2980746254 -3.79E-06
    57 OT SD       0.10E+00   18.3     0.00000186     -5875.2980784227 -3.80E-06
    58 OT SD       0.10E+00   19.7     0.00000187     -5875.2980822216 -3.80E-06
    59 OT SD       0.10E+00   17.4     0.00000193     -5875.2980860020 -3.78E-06
    60 OT SD       0.10E+00   17.2     0.00000217     -5875.2980896681 -3.67E-06
    61 OT SD       0.10E+00   17.4     0.00000296     -5875.2980927933 -3.13E-06
    62 OT SD       0.10E+00   17.8     0.00000515     -5875.2980934914 -6.98E-07
    63 OT DIIS     0.10E+00   16.5     0.00001024     -5875.2980833932  1.01E-05
    64 OT SD       0.10E+00   17.3     0.00000184     -5875.2980866880 -3.29E-06
    65 OT SD       0.10E+00   17.0     0.00000184     -5875.2980904321 -3.74E-06
    66 OT SD       0.10E+00   18.2     0.00000185     -5875.2980941813 -3.75E-06
    67 OT SD       0.10E+00   16.6     0.00000187     -5875.2980979300 -3.75E-06
    68 OT SD       0.10E+00   18.1     0.00000195     -5875.2981016486 -3.72E-06
    69 OT SD       0.10E+00   18.5     0.00000226     -5875.2981052074 -3.56E-06
    70 OT SD       0.10E+00   16.8     0.00000323     -5875.2981080500 -2.84E-06
    71 OT SD       0.10E+00   19.8     0.00000575     -5875.2981077885  2.61E-07
    72 OT DIIS     0.10E+00   16.8     0.00001142     -5875.2980940871  1.37E-05
    73 OT SD       0.10E+00   17.4     0.00000183     -5875.2980847121  9.37E-06
    74 OT SD       0.10E+00   16.9     0.00000183     -5875.2980884114 -3.70E-06
    75 OT SD       0.10E+00   16.6     0.00000183     -5875.2980921134 -3.70E-06
    76 OT SD       0.10E+00   15.5     0.00000186     -5875.2980958127 -3.70E-06
    77 OT SD       0.10E+00   17.0     0.00000194     -5875.2980994799 -3.67E-06
    78 OT SD       0.10E+00   16.9     0.00000225     -5875.2981029821 -3.50E-06
    79 OT SD       0.10E+00   18.2     0.00000326     -5875.2981057332 -2.75E-06
    80 OT DIIS     0.10E+00   18.2     0.00000591     -5875.2981051431  5.90E-07
    81 OT SD       0.10E+00   16.8     0.00000182     -5875.2981015298  3.61E-06
    82 OT SD       0.10E+00   16.3     0.00000182     -5875.2981051866 -3.66E-06
    83 OT SD       0.10E+00   17.7     0.00000183     -5875.2981088431 -3.66E-06
    84 OT SD       0.10E+00   17.7     0.00000189     -5875.2981124819 -3.64E-06
    85 OT SD       0.10E+00   16.4     0.00000209     -5875.2981160210 -3.54E-06
    86 OT SD       0.10E+00   17.2     0.00000279     -5875.2981190978 -3.08E-06
    87 OT SD       0.10E+00   17.0     0.00000478     -5875.2981201131 -1.02E-06
    88 OT DIIS     0.10E+00   19.9     0.00000943     -5875.2981119940  8.12E-06
    89 OT DIIS     0.10E+00   16.7     0.00000181     -5875.2980997217  1.23E-05
    90 OT SD       0.10E+00   16.1     0.00000181     -5875.2981003516 -6.30E-07
    91 OT SD       0.10E+00   16.7     0.00000181     -5875.2981039725 -3.62E-06
    92 OT SD       0.10E+00   17.6     0.00000181     -5875.2981075953 -3.62E-06
    93 OT SD       0.10E+00   17.5     0.00000183     -5875.2981112164 -3.62E-06
    94 OT SD       0.10E+00   18.2     0.00000188     -5875.2981148176 -3.60E-06
    95 OT SD       0.10E+00   18.9     0.00000208     -5875.2981183246 -3.51E-06
    96 OT SD       0.10E+00   16.9     0.00000269     -5875.2981214396 -3.12E-06
    97 OT SD       0.10E+00   17.6     0.00000434     -5875.2981229655 -1.53E-06
    98 OT DIIS     0.10E+00   17.2     0.00000811     -5875.2981180355  4.93E-06
    99 OT SD       0.10E+00   17.4     0.00000180     -5875.2981201364 -2.10E-06
   100 OT SD       0.10E+00   17.7     0.00000180     -5875.2981237248 -3.59E-06
   101 OT SD       0.10E+00   16.9     0.00000181     -5875.2981273150 -3.59E-06
   102 OT SD       0.10E+00   16.8     0.00000184     -5875.2981308992 -3.58E-06
   103 OT SD       0.10E+00   16.5     0.00000194     -5875.2981344388 -3.54E-06
   104 OT SD       0.10E+00   16.9     0.00000232     -5875.2981377656 -3.33E-06
   105 OT SD       0.10E+00   17.2     0.00000351     -5875.2981401518 -2.39E-06
   106 OT SD       0.10E+00   17.2     0.00000649     -5875.2981384314  1.72E-06
   107 OT DIIS     0.10E+00   17.8     0.00001313     -5875.2981187315  1.97E-05
   108 OT SD       0.10E+00   17.8     0.00000179     -5875.2981186710  6.05E-08
   109 OT SD       0.10E+00   16.8     0.00000179     -5875.2981222262 -3.56E-06
   110 OT SD       0.10E+00   17.3     0.00000180     -5875.2981257819 -3.56E-06
   111 OT SD       0.10E+00   17.4     0.00000182     -5875.2981293324 -3.55E-06
   112 OT SD       0.10E+00   16.7     0.00000190     -5875.2981328513 -3.52E-06
   113 OT SD       0.10E+00   17.4     0.00000216     -5875.2981362311 -3.38E-06
   114 OT SD       0.10E+00   17.5     0.00000299     -5875.2981390308 -2.80E-06
   115 OT SD       0.10E+00   16.8     0.00000514     -5875.2981394278 -3.97E-07
   116 OT DIIS     0.10E+00   19.6     0.00000998     -5875.2981297552  9.67E-06
   117 OT SD       0.10E+00   17.8     0.00000178     -5875.2981356605 -5.91E-06
   118 OT SD       0.10E+00   18.6     0.00000179     -5875.2981391859 -3.53E-06
   119 OT SD       0.10E+00   18.8     0.00000179     -5875.2981427114 -3.53E-06
   120 OT SD       0.10E+00   17.2     0.00000183     -5875.2981462271 -3.52E-06

  Leaving inner SCF loop after reaching   120 steps.


  Electronic density on regular grids:      -2176.0000000187       -0.0000000187
  Core density on regular grids:             2175.9999999991       -0.0000000009
  Total charge density on r-space grids:       -0.0000000196
  Total charge density g-space grids:          -0.0000000196

  Overlap energy of the core charge distribution:               0.00001544226867
  Self energy of the core charge distribution:             -14262.87427392135396
  Core Hamiltonian energy:                                   3826.62886382078341
  Hartree energy:                                            5727.38709754846877
  Exchange-correlation energy:                              -1163.23227377613648
  Dispersion energy:                                           -3.20757534115797

  Total energy:                                             -5875.29814622712638

  outer SCF iter =    5 RMS gradient =   0.18E-05 energy =      -5875.2981462271

  ----------------------------------- OT ---------------------------------------
  Minimizer      : DIIS                : direct inversion
                                         in the iterative subspace
                                         using   7 DIIS vectors
                                         safer DIIS on
  Preconditioner : FULL_SINGLE_INVERSE : inversion of 
                                         H + eS - 2*(Sc)(c^T*H*c+const)(Sc)^T
  Precond_solver : INVERSE_UPDATE
  stepsize       :    0.10000000                  energy_gap     :    0.10000000
  eps_taylor     :   0.10000E-15                  max_taylor     :             4
  ----------------------------------- OT ---------------------------------------

  Step     Update method      Time    Convergence         Total energy    Change
  ------------------------------------------------------------------------------


     Lanczos converged:  T threshold:   0.100E-02
     Est. extremal eigenvalues:    0.101E+01   0.642E+00
     Est. condition number :    0.157E+01
     Hotelling iter   1 1.00000000   0.682E-01       3.570   148904.031



     Lanczos converged:  T threshold:   0.100E-02
     Est. extremal eigenvalues:    0.101E+01   0.642E+00
     Est. condition number :    0.158E+01
     Hotelling iter   1 1.00000000   0.688E-01       3.154   168567.374

     1 OT DIIS     0.10E+00   67.5     0.00000214     -5875.2981496875 -3.46E-06
     2 OT DIIS     0.10E+00   15.9     0.00000256     -5875.2981537640 -4.08E-06
     3 OT DIIS     0.10E+00   18.4     0.00000200     -5875.2981556688 -1.90E-06
     4 OT SD       0.10E+00   17.7     0.00000200     -5875.2981558443 -1.75E-07
     5 OT SD       0.10E+00   18.7     0.00000200     -5875.2981602815 -4.44E-06
     6 OT SD       0.10E+00   17.9     0.00000202     -5875.2981647250 -4.44E-06
     7 OT SD       0.10E+00   20.2     0.00000206     -5875.2981691614 -4.44E-06
     8 OT SD       0.10E+00   18.9     0.00000222     -5875.2981735223 -4.36E-06
     9 OT SD       0.10E+00   19.7     0.00000283     -5875.2981774883 -3.97E-06
    10 OT SD       0.10E+00   18.6     0.00000466     -5875.2981795931 -2.10E-06
    11 OT DIIS     0.10E+00   19.1     0.00000920     -5875.2981730623  6.53E-06
    12 OT SD       0.10E+00   17.8     0.00000199     -5875.2981655406  7.52E-06
    13 OT SD       0.10E+00   17.9     0.00000199     -5875.2981699192 -4.38E-06
    14 OT SD       0.10E+00   19.4     0.00000200     -5875.2981743012 -4.38E-06
    15 OT SD       0.10E+00   17.3     0.00000203     -5875.2981786781 -4.38E-06
    16 OT SD       0.10E+00   17.7     0.00000213     -5875.2981830061 -4.33E-06
    17 OT SD       0.10E+00   16.8     0.00000254     -5875.2981870874 -4.08E-06
    18 OT SD       0.10E+00   19.0     0.00000384     -5875.2981900434 -2.96E-06
    19 OT SD       0.10E+00   17.2     0.00000717     -5875.2981879623  2.08E-06
    20 OT DIIS     0.10E+00   16.5     0.00001467     -5875.2981632877  2.47E-05
    21 OT SD       0.10E+00   16.7     0.00000198     -5875.2981715707 -8.28E-06
    22 OT SD       0.10E+00   17.5     0.00000198     -5875.2981759014 -4.33E-06
    23 OT SD       0.10E+00   16.5     0.00000200     -5875.2981802296 -4.33E-06
    24 OT SD       0.10E+00   17.9     0.00000206     -5875.2981845314 -4.30E-06
    25 OT SD       0.10E+00   19.5     0.00000232     -5875.2981886937 -4.16E-06
    26 OT SD       0.10E+00   18.7     0.00000319     -5875.2981922124 -3.52E-06
    27 OT SD       0.10E+00   17.4     0.00000560     -5875.2981928267 -6.14E-07
    28 OT DIIS     0.10E+00   16.6     0.00001126     -5875.2981803020  1.25E-05
    29 OT SD       0.10E+00   16.0     0.00000197     -5875.2981869387 -6.64E-06
    30 OT SD       0.10E+00   17.8     0.00000197     -5875.2981912187 -4.28E-06
    31 OT SD       0.10E+00   16.8     0.00000200     -5875.2981954891 -4.27E-06
    32 OT SD       0.10E+00   17.7     0.00000212     -5875.2981997044 -4.22E-06
    33 OT SD       0.10E+00   16.5     0.00000253     -5875.2982036644 -3.96E-06
    34 OT SD       0.10E+00   18.5     0.00000382     -5875.2982065045 -2.84E-06
    35 OT SD       0.10E+00   18.0     0.00000706     -5875.2982044812  2.02E-06
    36 OT DIIS     0.10E+00   16.4     0.00001423     -5875.2981813305  2.32E-05
    37 OT DIIS     0.10E+00   18.8     0.00000196     -5875.2981885130 -7.18E-06
    38 OT DIIS     0.10E+00   17.5     0.00000196     -5875.2981899340 -1.42E-06
    39 OT DIIS     0.10E+00   18.8     0.00000195     -5875.2981944088 -4.47E-06
    40 OT SD       0.10E+00   17.3     0.00000195     -5875.2981944888 -7.99E-08
    41 OT SD       0.10E+00   18.0     0.00000196     -5875.2981987324 -4.24E-06
    42 OT SD       0.10E+00   17.0     0.00000196     -5875.2982029817 -4.25E-06
    43 OT SD       0.10E+00   18.5     0.00000196     -5875.2982072379 -4.26E-06
    44 OT SD       0.10E+00   17.6     0.00000198     -5875.2982114995 -4.26E-06
    45 OT SD       0.10E+00   17.0     0.00000202     -5875.2982157523 -4.25E-06
    46 OT SD       0.10E+00   17.0     0.00000219     -5875.2982199258 -4.17E-06
    47 OT SD       0.10E+00   16.8     0.00000281     -5875.2982237008 -3.77E-06
    48 OT SD       0.10E+00   20.1     0.00000463     -5875.2982256438 -1.94E-06
    49 OT DIIS     0.10E+00   17.6     0.00000906     -5875.2982192687  6.38E-06
    50 OT SD       0.10E+00   21.4     0.00000195     -5875.2982096665  9.60E-06
    51 OT SD       0.10E+00   16.9     0.00000195     -5875.2982138712 -4.20E-06
    52 OT SD       0.10E+00   17.3     0.00000196     -5875.2982180791 -4.21E-06
    53 OT SD       0.10E+00   16.7     0.00000198     -5875.2982222844 -4.21E-06
    54 OT SD       0.10E+00   17.9     0.00000206     -5875.2982264564 -4.17E-06
    55 OT SD       0.10E+00   18.5     0.00000236     -5875.2982304572 -4.00E-06
    56 OT SD       0.10E+00   16.8     0.00000338     -5875.2982336694 -3.21E-06
    57 OT SD       0.10E+00   16.5     0.00000610     -5875.2982333336  3.36E-07
    58 OT DIIS     0.10E+00   18.8     0.00001239     -5875.2982169927  1.63E-05
    59 OT SD       0.10E+00   17.0     0.00000194     -5875.2982179522 -9.59E-07
    60 OT SD       0.10E+00   17.6     0.00000194     -5875.2982221152 -4.16E-06
    61 OT SD       0.10E+00   16.3     0.00000196     -5875.2982262769 -4.16E-06
    62 OT SD       0.10E+00   17.1     0.00000202     -5875.2982304156 -4.14E-06
    63 OT SD       0.10E+00   19.4     0.00000225     -5875.2982344292 -4.01E-06
    64 OT SD       0.10E+00   18.3     0.00000307     -5875.2982378569 -3.43E-06
    65 OT SD       0.10E+00   16.6     0.00000539     -5875.2982386097 -7.53E-07
    66 OT DIIS     0.10E+00   18.1     0.00001085     -5875.2982271379  1.15E-05
    67 OT DIIS     0.10E+00   16.7     0.00000193     -5875.2982289170 -1.78E-06
    68 OT DIIS     0.10E+00   17.4     0.00000193     -5875.2982292694 -3.52E-07
    69 OT DIIS     0.10E+00   18.7     0.00000193     -5875.2982295035 -2.34E-07
    70 OT DIIS     0.10E+00   18.8     0.00000193     -5875.2982309690 -1.47E-06
    71 OT SD       0.10E+00   17.9     0.00000193     -5875.2982339539 -2.98E-06
    72 OT SD       0.10E+00   17.8     0.00000193     -5875.2982380809 -4.13E-06
    73 OT SD       0.10E+00   16.5     0.00000193     -5875.2982422131 -4.13E-06
    74 OT DIIS     0.10E+00   16.5     0.00000194     -5875.2982463490 -4.14E-06
    75 OT DIIS     0.10E+00   17.0     0.00000192     -5875.2982503520 -4.00E-06
    76 OT DIIS     0.10E+00   17.6     0.00000192     -5875.2982551309 -4.78E-06
    77 OT DIIS     0.10E+00   17.5     0.00000192     -5875.2982557000 -5.69E-07
    78 OT SD       0.10E+00   19.0     0.00000192     -5875.2982602116 -4.51E-06
    79 OT SD       0.10E+00   17.8     0.00000192     -5875.2982642874 -4.08E-06
    80 OT SD       0.10E+00   17.2     0.00000192     -5875.2982683742 -4.09E-06
    81 OT SD       0.10E+00   17.7     0.00000193     -5875.2982724747 -4.10E-06
    82 OT SD       0.10E+00   18.1     0.00000195     -5875.2982765887 -4.11E-06
    83 OT SD       0.10E+00   18.3     0.00000199     -5875.2982807054 -4.12E-06
    84 OT SD       0.10E+00   18.3     0.00000214     -5875.2982847703 -4.06E-06
    85 OT SD       0.10E+00   17.5     0.00000264     -5875.2982885531 -3.78E-06
    86 OT SD       0.10E+00   16.4     0.00000403     -5875.2982911040 -2.55E-06
    87 OT SD       0.10E+00   18.0     0.00000737     -5875.2982884615  2.64E-06
    88 OT DIIS     0.10E+00   17.5     0.00001464     -5875.2982638058  2.47E-05
    89 OT SD       0.10E+00   16.5     0.00000190     -5875.2982474735  1.63E-05
    90 OT SD       0.10E+00   18.4     0.00000190     -5875.2982514896 -4.02E-06
    91 OT SD       0.10E+00   11.2     0.00000191     -5875.2982555040 -4.01E-06
    92 OT SD       0.10E+00   11.2     0.00000194     -5875.2982595073 -4.00E-06
    93 OT SD       0.10E+00   11.1     0.00000205     -5875.2982634518 -3.94E-06
    94 OT SD       0.10E+00   11.1     0.00000251     -5875.2982671161 -3.66E-06
    95 OT SD       0.10E+00   11.0     0.00000399     -5875.2982694669 -2.35E-06
    96 OT DIIS     0.10E+00   11.0     0.00000779     -5875.2982656562  3.81E-06
    97 OT DIIS     0.10E+00   10.9     0.00000189     -5875.2982663544 -6.98E-07
    98 OT DIIS     0.10E+00   10.9     0.00000189     -5875.2982725356 -6.18E-06
    99 OT DIIS     0.10E+00   11.1     0.00000189     -5875.2982731615 -6.26E-07
   100 OT SD       0.10E+00   10.9     0.00000189     -5875.2982761804 -3.02E-06
   101 OT SD       0.10E+00   11.1     0.00000189     -5875.2982801619 -3.98E-06
   102 OT SD       0.10E+00   11.0     0.00000190     -5875.2982841517 -3.99E-06
   103 OT SD       0.10E+00   11.1     0.00000190     -5875.2982881522 -4.00E-06
   104 OT SD       0.10E+00   11.3     0.00000191     -5875.2982921646 -4.01E-06
   105 OT SD       0.10E+00   11.1     0.00000194     -5875.2982961840 -4.02E-06
   106 OT SD       0.10E+00   11.1     0.00000204     -5875.2983001748 -3.99E-06
   107 OT SD       0.10E+00   11.1     0.00000243     -5875.2983039557 -3.78E-06
   108 OT SD       0.10E+00   11.0     0.00000376     -5875.2983066495 -2.69E-06
   109 OT SD       0.10E+00   11.0     0.00000729     -5875.2983040261  2.62E-06
   110 OT DIIS     0.10E+00   11.1     0.00001553     -5875.2982756242  2.84E-05
   111 OT SD       0.10E+00   10.9     0.00000188     -5875.2982721092  3.51E-06
   112 OT SD       0.10E+00   11.0     0.00000188     -5875.2982760477 -3.94E-06
   113 OT SD       0.10E+00   11.1     0.00000189     -5875.2982799878 -3.94E-06
   114 OT SD       0.10E+00   11.0     0.00000189     -5875.2982839283 -3.94E-06
   115 OT SD       0.10E+00   11.1     0.00000192     -5875.2982878605 -3.93E-06
   116 OT SD       0.10E+00   11.1     0.00000203     -5875.2982917418 -3.88E-06
   117 OT SD       0.10E+00   11.1     0.00000244     -5875.2982953761 -3.63E-06
   118 OT DIIS     0.10E+00   11.3     0.00000378     -5875.2982978761 -2.50E-06
   119 OT SD       0.10E+00   11.1     0.00000188     -5875.2983037808 -5.90E-06
   120 OT SD       0.10E+00   11.1     0.00000189     -5875.2983076722 -3.89E-06

  Leaving inner SCF loop after reaching   120 steps.


  Electronic density on regular grids:      -2176.0000000187       -0.0000000187
  Core density on regular grids:             2175.9999999991       -0.0000000009
  Total charge density on r-space grids:       -0.0000000196
  Total charge density g-space grids:          -0.0000000196

  Overlap energy of the core charge distribution:               0.00001544226867
  Self energy of the core charge distribution:             -14262.87427392135396
  Core Hamiltonian energy:                                   3826.62827701681908
  Hartree energy:                                            5727.38747291767504
  Exchange-correlation energy:                              -1163.23222378645096
  Dispersion energy:                                           -3.20757534115797

  Total energy:                                             -5875.29830767220119

  outer SCF iter =    6 RMS gradient =   0.19E-05 energy =      -5875.2983076722

  ----------------------------------- OT ---------------------------------------
  Minimizer      : DIIS                : direct inversion
                                         in the iterative subspace
                                         using   7 DIIS vectors
                                         safer DIIS on
  Preconditioner : FULL_SINGLE_INVERSE : inversion of 
                                         H + eS - 2*(Sc)(c^T*H*c+const)(Sc)^T
  Precond_solver : INVERSE_UPDATE
  stepsize       :    0.10000000                  energy_gap     :    0.10000000
  eps_taylor     :   0.10000E-15                  max_taylor     :             4
  ----------------------------------- OT ---------------------------------------

  Step     Update method      Time    Convergence         Total energy    Change
  ------------------------------------------------------------------------------


     Lanczos converged:  T threshold:   0.100E-02
     Est. extremal eigenvalues:    0.110E+01   0.849E+00
     Est. condition number :    0.129E+01
     Hotelling iter   1 1.00000000   0.293E-01       2.133   249283.381



     Lanczos converged:  T threshold:   0.100E-02
     Est. extremal eigenvalues:    0.110E+01   0.849E+00
     Est. condition number :    0.129E+01
     Hotelling iter   1 1.00000000   0.293E-01       2.172   244892.775

     1 OT DIIS     0.10E+00   47.9     0.00000194     -5875.2983115551 -3.88E-06
     2 OT DIIS     0.10E+00   11.0     0.00000208     -5875.2983154265 -3.87E-06
     3 OT SD       0.10E+00   11.3     0.00000190     -5875.2983168384 -1.41E-06
     4 OT SD       0.10E+00   11.4     0.00000190     -5875.2983208336 -4.00E-06
     5 OT SD       0.10E+00   11.3     0.00000191     -5875.2983248500 -4.02E-06
     6 OT SD       0.10E+00   11.3     0.00000193     -5875.2983288879 -4.04E-06
     7 OT SD       0.10E+00   11.5     0.00000200     -5875.2983329317 -4.04E-06
     8 OT SD       0.10E+00   11.4     0.00000224     -5875.2983368869 -3.96E-06
     9 OT SD       0.10E+00   11.6     0.00000309     -5875.2983402814 -3.39E-06
    10 OT SD       0.10E+00   11.5     0.00000557     -5875.2983408154 -5.34E-07
    11 OT SD       0.10E+00   11.7     0.00001159     -5875.2983272661  1.35E-05
    12 OT DIIS     0.10E+00   11.9     0.00002528     -5875.2982445431  8.27E-05
    13 OT SD       0.10E+00   11.6     0.00000187     -5875.2982907709 -4.62E-05
    14 OT SD       0.10E+00   10.1     0.00000187     -5875.2982946682 -3.90E-06
    15 OT SD       0.10E+00   10.7     0.00000188     -5875.2982985636 -3.90E-06
    16 OT SD       0.10E+00   11.0     0.00000189     -5875.2983024526 -3.89E-06
    17 OT SD       0.10E+00   10.9     0.00000196     -5875.2983063092 -3.86E-06
    18 OT SD       0.10E+00   10.9     0.00000223     -5875.2983100110 -3.70E-06
    19 OT SD       0.10E+00   10.8     0.00000322     -5875.2983129800 -2.97E-06
    20 OT DIIS     0.10E+00   10.9     0.00000596     -5875.2983124838  4.96E-07
    21 OT DIIS     0.10E+00   10.9     0.00000187     -5875.2983226482 -1.02E-05
    22 OT DIIS     0.10E+00   10.8     0.00000186     -5875.2983257450 -3.10E-06
    23 OT DIIS     0.10E+00   10.9     0.00000186     -5875.2983288427 -3.10E-06
    24 OT SD       0.10E+00   11.0     0.00000186     -5875.2983348455 -6.00E-06
    25 OT SD       0.10E+00   11.0     0.00000187     -5875.2983387010 -3.86E-06
    26 OT SD       0.10E+00   11.3     0.00000187     -5875.2983425671 -3.87E-06
    27 OT DIIS     0.10E+00   11.2     0.00000188     -5875.2983464443 -3.88E-06
    28 OT SD       0.10E+00   10.9     0.00000185     -5875.2983786364 -3.22E-05
    29 OT DIIS     0.10E+00   11.1     0.00000189     -5875.2983823216 -3.69E-06
    30 OT DIIS     0.10E+00   11.1     0.00000186     -5875.2984772650 -9.49E-05
    31 OT DIIS     0.10E+00   11.0     0.00000183     -5875.2984869636 -9.70E-06
    32 OT SD       0.10E+00   11.0     0.00000184     -5875.2984898648 -2.90E-06
    33 OT SD       0.10E+00   11.0     0.00000190     -5875.2984934769 -3.61E-06
    34 OT SD       0.10E+00   10.9     0.00000215     -5875.2984969785 -3.50E-06
    35 OT SD       0.10E+00   11.0     0.00000302     -5875.2984999008 -2.92E-06
    36 OT SD       0.10E+00   10.9     0.00000546     -5875.2985000248 -1.24E-07
    37 OT SD       0.10E+00   11.1     0.00001124     -5875.2984869218  1.31E-05
    38 OT DIIS     0.10E+00   11.1     0.00002412     -5875.2984112381  7.57E-05
    39 OT DIIS     0.10E+00   11.1     0.00000177     -5875.2984654357 -5.42E-05
    40 OT SD       0.10E+00   11.3     0.00000177     -5875.2984660702 -6.35E-07
    41 OT SD       0.10E+00   11.1     0.00000177     -5875.2984695516 -3.48E-06
    42 OT SD       0.10E+00   10.9     0.00000178     -5875.2984730432 -3.49E-06
    43 OT SD       0.10E+00   11.1     0.00000181     -5875.2984765427 -3.50E-06
    44 OT SD       0.10E+00   11.1     0.00000191     -5875.2984800185 -3.48E-06
    45 OT SD       0.10E+00   11.0     0.00000231     -5875.2984832981 -3.28E-06
    46 OT SD       0.10E+00   11.0     0.00000366     -5875.2984855119 -2.21E-06
    47 OT SD       0.10E+00   11.0     0.00000729     -5875.2984823276  3.18E-06
    48 OT DIIS     0.10E+00   11.0     0.00001583     -5875.2984521329  3.02E-05
    49 OT DIIS     0.10E+00   11.0     0.00000175     -5875.2984558715 -3.74E-06
    50 OT SD       0.10E+00   10.9     0.00000175     -5875.2984562331 -3.62E-07
    51 OT SD       0.10E+00   11.1     0.00000175     -5875.2984596412 -3.41E-06
    52 OT SD       0.10E+00   11.1     0.00000176     -5875.2984630547 -3.41E-06
    53 OT SD       0.10E+00   11.1     0.00000177     -5875.2984664736 -3.42E-06
    54 OT SD       0.10E+00   11.5     0.00000179     -5875.2984698915 -3.42E-06
    55 OT SD       0.10E+00   11.3     0.00000190     -5875.2984732719 -3.38E-06
    56 OT SD       0.10E+00   11.1     0.00000229     -5875.2984764432 -3.17E-06
    57 OT SD       0.10E+00   11.2     0.00000355     -5875.2984786192 -2.18E-06
