     180
 i =        1, E =     -2872.9177267710
 Ca         0.0252399978        1.5528666485        5.6586536151
 Ca         4.2711757054        5.0246841214        5.1104760371
 Ca         8.5604492675        0.2811818351        2.4171152132
 Ca        10.7196779402        5.0963023094        5.1379917783
 Ca         2.2633178025        0.2215486237        2.4465360742
 Ca         6.5446224061        1.5334776241        5.5599472881
  S         3.1890945355        1.6013213398        6.0790217400
  S         7.5173964260        4.9591769682        5.1861270044
  S        11.7563414747        0.4160284424        2.4532298396
  O         4.0681111773        0.3354332221        5.9387440059
  O         8.2948460604        5.4913182517        4.0281786341
  O        12.5542082842        1.1212470822        3.5136347824
  O         2.2960887046        1.4074669429        4.8548305682
  O         6.4922232518        5.9631281924        5.6119176726
  O        10.7449839826        6.4935954440        3.1567234466
  O         2.5915922777        5.2796200739        1.1289005077
  O         6.7861339895        3.7268301019        4.7689143935
  O        11.0491345524        1.4152602354        1.6118464449
  O         4.1916686265        2.6282882347        5.5042769151
  O         8.4486075051        4.6789074673        6.3002918410
  O        12.7052706961        6.5141994138        1.6755667633
  S         1.1620375675        4.9867471169        5.2406055448
  S         5.3871254779        0.3504826510        2.4481583782
  S         9.5994051855        1.6264425630        5.9767891487
  O         0.3505809282        3.7836049714        4.9175078623
  O         4.5851245012        1.2639355606        1.6042913208
  O         8.8042586088        5.3609562389        1.0420535465
  O         2.0647489769        5.3801318118        4.1271159286
  O         6.2994915366        1.0909936788        3.3717399654
  O        10.5653440373        0.4601922984        5.9814751786
  O         0.1492725791        6.0690145400        5.4943540418
  O         4.4099132372        6.5041926416        3.3002852414
  O         8.6982474691        1.2775660088        4.7966122133
  O         2.0300126452        4.7305703146        6.4295394981
  O         6.2934260627        6.3898734399        1.6692592193
  O        10.5474457649        2.6919214076        5.4454276602
  O         2.5394430377        2.7233382180        2.6289987467
  O         6.8064192294        3.7135252338        1.7560931913
  O        11.0499788501        3.9620640113        3.0963072329
  H         3.4407261263        2.5625859006        3.0550361747
  H         7.7068005729        3.4356351248        1.3909788292
  H        11.9321342943        4.4195334319        2.9332445283
  H         2.7318661690        3.3598213709        1.8623317238
  H         7.0054263901        4.0455825683        2.6850403445
  H        11.2471836024        2.9975791194        2.8964104822
 Ca         0.0244403601        8.4799964714        5.6585704102
 Ca         4.2711089587       11.9514456744        5.1103709593
 Ca         8.5620549672        7.2065236063        2.4162358819
 Ca        10.7197035126       12.0223814909        5.1386509101
 Ca         2.2644849589        7.1490018318        2.4461287335
 Ca         6.5451139288        8.4602421240        5.5600414202
  S         3.1890453546        8.5280327916        6.0789995156
  S         7.5174058131       11.8859902033        5.1860681888
  S        11.7559226485        7.3420090095        2.4537315991
  O         4.0683239371        7.2622215238        5.9384415777
  O         8.2949412292       12.4183157082        4.0281727494
  O        12.5534869478        8.0487772950        3.5132257104
  O         2.2959679807        8.3344268657        4.8548942198
  O         6.4922838231       12.8899486415        5.6119614528
  O        10.7452804286       13.4207602631        3.1557384788
  O         2.5910620293       12.2065294477        1.1281131450
  O         6.7861371444       10.6536527076        4.7689341161
  O        11.0493934623        8.3421475881        1.6122540554
  O         4.1916112500        9.5550343696        5.5043870945
  O         8.4486672767       11.6057719560        6.3002090916
  O        12.7053177058       13.4406691531        1.6755391656
  S         1.1620306270       11.9136053557        5.2406335944
  S         5.3866506300        7.2775207873        2.4474527508
  S         9.5992577727        8.5533871451        5.9772521999
  O         0.3506148791       10.7105065386        4.9176436828
  O         4.5847615250        8.1917045483        1.6046617692
  O         8.8044456717       12.2862980264        1.0415445162
  O         2.0646941304       12.3071119995        4.1271367015
  O         6.2990733595        8.0174183580        3.3715534546
  O        10.5654000736        7.3871946334        5.9815640624
  O         0.1494695887       12.9961432830        5.4943076455
  O         4.4104044162       13.4310212563        3.3008052715
  O         8.6983153150        8.2043850701        4.7968780536
  O         2.0302314308       11.6576027369        6.4294423876
  O         6.2939082798       13.3168323990        1.6693517152
  O        10.5475898181        9.6185107776        5.4452829848
  O         2.5394076278        9.6500457945        2.6292209754
  O         6.8059808016       10.6397207067        1.7561292782
  O        11.0499345026       10.8893845414        3.0960489178
  H         3.4407885434        9.4891300630        3.0548948534
  H         7.7067078044       10.3627508754        1.3911477138
  H        11.9324020499       11.3461383143        2.9333436752
  H         2.7317127123       10.2863901489        1.8624932070
  H         7.0055402833       10.9723396090        2.6847440490
  H        11.2469535411        9.9246659549        2.8965120451
 Ca        12.7812753650        1.5530006714        5.6589422072
 Ca        17.0277077803        5.0237770372        5.1102155094
 Ca        21.3191755162        0.2811678454        2.4165770575
 Ca        23.4761018157        5.0971308579        5.1384866626
 Ca        15.0208999732        0.2216724439        2.4478614469
 Ca        19.3005786205        1.5335206777        5.5598181049
  S        15.9456219262        1.6011124605        6.0780819420
  S        20.2738700911        4.9591569233        5.1861114013
  S        24.5112614883        0.4152992959        2.4531709408
  O        16.8247703990        0.3355455813        5.9399793744
  O        21.0514743796        5.4912076761        4.0282261923
  O        25.3094078919        1.1213764509        3.5129032056
  O        15.0520553003        1.4077545982        4.8544064834
  O        19.2485674870        5.9629163983        5.6120911525
  O        23.5019656595        6.4931356979        3.1561684520
  O        15.3481712226        5.2797463534        1.1275934004
  O        19.5425995959        3.7267302681        4.7692707053
  O        23.8070206262        1.4173280318        1.6122806072
  O        16.9483053790        2.6282011442        5.5046131382
  O        21.2050965483        4.6788273504        6.3002682304
  O        25.4620592928        6.5139766838        1.6760787624
  S        13.9185457304        4.9868403081        5.2405216351
  S        18.1434071160        0.3498717690        2.4478848062
  S        22.3565033333        1.6263787936        5.9757421516
  O        13.1073653398        3.7834703132        4.9178834076
  O        17.3417826616        1.2641590059        1.6045045905
  O        21.5609566388        5.3611600387        1.0416817036
  O        14.8213721481        5.3804330251        4.1271608148
  O        19.0551922739        1.0913910121        3.3714035973
  O        23.3219247793        0.4600876294        5.9821871664
  O        12.9059587646        6.0692829528        5.4943871537
  O        17.1658608232        6.5051144395        3.3005940799
  O        21.4542458315        1.2773705591        4.7969478105
  O        14.7867206064        4.7306332760        6.4293041986
  O        19.0493394911        6.3900085378        1.6687025856
  O        23.3039229923        2.6926193490        5.4453735768
  O        15.2954015836        2.7235704153        2.6298549701
  O        19.5622052101        3.7128909026        1.7563323171
  O        23.8065778565        3.9621058274        3.0966240485
  H        16.1970718104        2.5623944866        3.0548251511
  H        20.4628250288        3.4357914373        1.3909827937
  H        24.6888841220        4.4194832557        2.9337740930
  H        15.4881394613        3.3598188986        1.8632315683
  H        19.7619338568        4.0454156296        2.6848469699
  H        24.0036856906        2.9978205489        2.8962833544
 Ca        12.7798540125        8.4798002328        5.6587250382
 Ca        17.0277789804       11.9524579899        5.1099017356
 Ca        21.3180777906        7.2069195595        2.4163205568
 Ca        23.4766584946       12.0217792454        5.1373557658
 Ca        15.0199369007        7.1480322569        2.4468145520
 Ca        19.3020652994        8.4602346719        5.5599392641
  S        15.9461860748        8.5277967602        6.0774047069
  S        20.2738611219       11.8859722661        5.1860689970
  S        24.5125075518        7.3421750772        2.4537204114
  O        16.8247861680        7.2619713262        5.9383018876
  O        21.0512351073       12.4180997046        4.0280413505
  O        25.3099210220        8.0487246313        3.5134783478
  O        15.0521267317        8.3347741805        4.8544850451
  O        19.2487017852       12.8899972565        5.6118390822
  O        23.4999592980       13.4214530109        3.1573384382
  O        15.3467039480       12.2068414033        1.1270232904
  O        19.5424595509       10.6536758325        4.7688376291
  O        23.8054166651        8.3415577475        1.6119512860
  O        16.9481409862        9.5555346247        5.5050099689
  O        21.2050212887       11.6058184172        6.3002982351
  O        25.4605241943       13.4404464690        1.6753582222
  S        13.9185042544       11.9136786401        5.2406332976
  S        18.1439397303        7.2775921821        2.4486593635
  S        22.3555949304        8.5530409891        5.9769542537
  O        13.1074765373       10.7102078665        4.9178937741
  O        17.3420432496        8.1913154972        1.6049012319
  O        21.5631191745       12.2856647916        1.0406280477
  O        14.8212826497       12.3070871538        4.1272219240
  O        19.0566026558        8.0164238718        3.3730068264
  O        23.3220601916        7.3871930801        5.9816791880
  O        12.9056824165       12.9958969356        5.4943719914
  O        17.1666906543       13.4308773628        3.3007757710
  O        21.4544619751        8.2047371623        4.7964463387
  O        14.7866543746       11.6572490164        6.4293845827
  O        19.0498148563       13.3152961730        1.6701529680
  O        23.3039788764        9.6184289078        5.4461949971
  O        15.2964012227        9.6496810764        2.6288366845
  O        19.5627552642       10.6424704747        1.7554891764
  O        23.8064947393       10.8888665580        3.0951780347
  H        16.1975352160        9.4894514062        3.0550960477
  H        20.4627599220       10.3626524371        1.3910687562
  H        24.6887885567       11.3461611490        2.9332615306
  H        15.4881622504       10.2868996933        1.8626469260
  H        19.7616954614       10.9723529585        2.6851404765
  H        24.0045120203        9.9243110173        2.8978029885
     180
 i =        2, E =     -2873.1063559956
 Ca         0.0009965410        1.5577478615        5.5628987498
 Ca         4.2376798872        5.0545937522        5.1133891849
 Ca         8.5818384964        0.2224426897        2.4007289285
 Ca        10.6461637374        5.0919849274        5.0728353692
 Ca         2.2150376443        0.2449513513        2.4151705108
 Ca         6.4289262912        1.4969992743        5.5206764618
  S         3.2648568908        1.5676731437        5.9583805435
  S         7.5038254110        4.9603025378        5.2070872676
  S        11.7324094168        0.4365251577        2.4339026241
  O         4.1423997667        0.3171233080        6.0639310551
  O         8.3136206405        5.4587965489        4.0504811064
  O        12.5959800046        1.1350277622        3.4638276339
  O         2.1930023295        1.3980799978        4.9112982945
  O         6.4918936074        6.0023411565        5.6417315457
  O        10.7448706223        6.4992140200        3.1972055265
  O         2.6034531668        5.2568298353        1.1715724323
  O         6.7372789596        3.7354132198        4.7763517644
  O        10.9931206670        1.4390025926        1.6139344645
  O         4.2539249679        2.6644544543        5.5403455746
  O         8.4791220766        4.6896441873        6.3016992010
  O        12.7214420222        6.5115717329        1.7018101319
  S         1.1715012191        4.9938330272        5.2622310177
  S         5.3916693769        0.3573714512        2.4449474166
  S         9.6427348138        1.5849205892        5.9323373734
  O         0.3586826123        3.7775678826        4.9516663980
  O         4.5797759038        1.2619258225        1.6017561112
  O         8.7854974569        5.3547849173        1.0747453717
  O         2.0595327051        5.3577227296        4.1092942846
  O         6.3170137861        1.1358173190        3.3550053879
  O        10.6076835936        0.4058520179        6.0842778579
  O         0.1600997770        6.0867119410        5.5687059139
  O         4.4388911751        6.4349549307        3.2916380461
  O         8.6753059907        1.3174677496        4.7618195460
  O         2.0452529476        4.7300416719        6.4457139242
  O         6.2934488544        6.3993261349        1.6629735032
  O        10.5773862224        2.7245655276        5.5255447557
  O         2.5557928428        2.7489232981        2.6039483254
  O         6.8389404597        3.6938995350        1.7553059110
  O        11.0736564737        3.9513333173        3.0522568527
  H         3.4174828968        2.5917698009        3.0310759011
  H         7.7163977453        3.4802746550        1.3830316953
  H        11.9163361134        4.3974167752        2.8680383457
  H         2.7177988472        3.3780584930        1.8518602012
  H         7.0172442446        4.0294020997        2.6621093688
  H        11.2386376381        2.9962063292        2.8901591148
 Ca         0.0008132617        8.4843452863        5.5636396852
 Ca         4.2380360792       11.9805222540        5.1133928031
 Ca         8.5832841710        7.1475721827        2.4003522105
 Ca        10.6462748021       12.0168197973        5.0739777531
 Ca         2.2176864693        7.1735731032        2.4143922878
 Ca         6.4306977771        8.4235955166        5.5210216565
  S         3.2630166294        8.4950239214        5.9621047422
  S         7.5039349714       11.8871540392        5.2069022195
  S        11.7321602883        7.3610952719        2.4348628483
  O         4.1425347017        7.2446162319        6.0611507011
  O         8.3137198158       12.3861647909        4.0503926954
  O        12.5947707654        8.0637359470        3.4626037702
  O         2.1946612082        8.3242689116        4.9111402934
  O         6.4921474716       12.9292799430        5.6419113522
  O        10.7457189285       13.4267029466        3.1966063864
  O         2.6017350637       12.1839857588        1.1699084910
  O         6.7372463348       10.6624000775        4.7763636323
  O        10.9934102221        8.3649445687        1.6147364601
  O         4.2529755535        9.5902983679        5.5394885445
  O         8.4791748299       11.6168142552        6.3016436102
  O        12.7207095499       13.4376488348        1.7020260619
  S         1.1713981065       11.9208970447        5.2622757050
  S         5.3909684140        7.2843875546        2.4438405607
  S         9.6415227353        8.5121818836        5.9344714713
  O         0.3585430490       10.7047537898        4.9516041804
  O         4.5788325198        8.1899190000        1.6027807879
  O         8.7851588020       12.2794054782        1.0744438845
  O         2.0594617571       12.2845617367        4.1092946037
  O         6.3166812736        8.0622169904        3.3542435344
  O        10.6078435377        7.3335589819        6.0838943564
  O         0.1604200557       13.0142446492        5.5683671187
  O         4.4398183619       13.3617213078        3.2921571458
  O         8.6760212793        8.2442906228        4.7620128625
  O         2.0453223430       11.6570992621        6.4455382772
  O         6.2953349104       13.3264567349        1.6644119264
  O        10.5774345840        9.6502382963        5.5248710463
  O         2.5555900096        9.6763380456        2.6048001567
  O         6.8382681928       10.6188447857        1.7556291079
  O        11.0738563718       10.8786929908        3.0518085069
  H         3.4176917800        9.5176726790        3.0305760337
  H         7.7162865081       10.4073114120        1.3830139882
  H        11.9168587221       11.3242985483        2.8680261344
  H         2.7174108498       10.3042721626        1.8516037820
  H         7.0173006635       10.9563148847        2.6616275345
  H        11.2382700212        9.9232016187        2.8906899050
 Ca        12.7568181095        1.5576136683        5.5629545754
 Ca        16.9943240748        5.0519633935        5.1127821421
 Ca        21.3396654705        0.2212272246        2.4002838167
 Ca        23.4028838284        5.0916178751        5.0739966069
 Ca        14.9726638961        0.2467122503        2.4173020002
 Ca        19.1845326172        1.4970912330        5.5207915757
  S        16.0206620873        1.5678455203        5.9591916734
  S        20.2603414880        4.9602441300        5.2071374451
  S        24.4879471418        0.4351370476        2.4343310144
  O        16.8990860092        0.3174661773        6.0634574544
  O        21.0704177262        5.4587970504        4.0507622497
  O        25.3512205792        1.1360377076        3.4630384947
  O        14.9496790277        1.3980836345        4.9112626364
  O        19.2483228540        6.0021768039        5.6420429872
  O        23.5022074840        6.4986805646        3.1966499672
  O        15.3604173405        5.2586105681        1.1687956040
  O        19.4938111611        3.7353367382        4.7767022128
  O        23.7508073740        1.4403069504        1.6151374504
  O        17.0106323764        2.6637963023        5.5403312838
  O        21.2357357224        4.6897780120        6.3017883515
  O        25.4782375709        6.5127559453        1.7016008269
  S        13.9280781440        4.9937706546        5.2621166137
  S        18.1485462258        0.3559821492        2.4446800349
  S        22.3989001124        1.5851249838        5.9323538848
  O        13.1152420775        3.7776981779        4.9517418953
  O        17.3363280443        1.2610991500        1.6025253068
  O        21.5408876130        5.3549596570        1.0748868817
  O        14.8165281336        5.3581918194        4.1095498169
  O        19.0727731387        1.1372490936        3.3540025872
  O        23.3641142221        0.4063898533        6.0845009603
  O        12.9174950615        6.0873924679        5.5683670571
  O        17.1944017431        6.4366560479        3.2919835405
  O        21.4314823128        1.3172324444        4.7620571292
  O        14.8022203027        4.7299961144        6.4453383005
  O        19.0503143345        6.3990901109        1.6642527026
  O        23.3337602727        2.7242663860        5.5248070572
  O        15.3114490802        2.7488864667        2.6054615131
  O        19.5946004409        3.6921615628        1.7556930095
  O        23.8301174284        3.9518562658        3.0526040636
  H        16.1736004489        2.5911104458        3.0308076047
  H        20.4724416741        3.4803939620        1.3827581719
  H        24.6733266687        4.3970788082        2.8689725372
  H        15.4732692401        3.3781711570        1.8538073811
  H        19.7736835798        4.0295090600        2.6616625885
  H        23.9950084364        2.9968663622        2.8903422086
 Ca        12.7540135645        8.4848922593        5.5636186100
 Ca        16.9939347862       11.9818388767        5.1130585311
 Ca        21.3381616651        7.1463734910        2.3994233819
 Ca        23.4036984325       12.0167444792        5.0719921452
 Ca        14.9725451187        7.1723734721        2.4147114560
 Ca        19.1863455433        8.4237948515        5.5202777196
  S        16.0212703999        8.4944420759        5.9583538068
  S        20.2602183434       11.8872204703        5.2068328470
  S        24.4889744683        7.3618705078        2.4351667619
  O        16.8990733348        7.2436914407        6.0607738062
  O        21.0703868374       12.3855306154        4.0503362141
  O        25.3511451529        8.0629778737        3.4640982808
  O        14.9497447989        8.3258363011        4.9111160762
  O        19.2482921324       12.9292738904        5.6416350674
  O        23.4998185078       13.4279665970        3.1977624073
  O        15.3577220451       12.1857295596        1.1674315610
  O        19.4936004192       10.6623170123        4.7761967247
  O        23.7497282504        8.3640424032        1.6141280673
  O        17.0103601361        9.5912090554        5.5409120684
  O        21.2356476552       11.6167052635        6.3013895163
  O        25.4756350810       13.4380514887        1.7007313127
  S        13.9279836550       11.9205327759        5.2624602240
  S        18.1484324518        7.2848743041        2.4451913722
  S        22.3992841496        8.5115854551        5.9326426736
  O        13.1154305846       10.7043226011        4.9515631156
  O        17.3367527597        8.1907673240        1.6031892075
  O        21.5463934656       12.2782521727        1.0722444106
  O        14.8163265068       12.2844553593        4.1096921094
  O        19.0748908201        8.0593064710        3.3568181654
  O        23.3644953179        7.3327225488        6.0842371164
  O        12.9167537003       13.0135241301        5.5684665486
  O        17.1960820553       13.3619876579        3.2927935453
  O        21.4319161883        8.2446253004        4.7619217906
  O        14.8022433745       11.6566214432        6.4455263444
  O        19.0498795131       13.3231084946        1.6648086951
  O        23.3342265351        9.6511927636        5.5264005863
  O        15.3121820234        9.6756792476        2.6048848419
  O        19.5949799235       10.6251523082        1.7540645765
  O        23.8301970902       10.8793867207        3.0514255985
  H        16.1744904155        9.5180998566        3.0302485926
  H        20.4716802343       10.4075649037        1.3829847242
  H        24.6734403549       11.3240303805        2.8679580472
  H        15.4739870113       10.3048628723        1.8528857429
  H        19.7729645504       10.9562915589        2.6624431978
  H        23.9957583241        9.9240111483        2.8918603156
     180
 i =        3, E =     -2873.4673345876
 Ca        -0.0358786887        1.5659968878        5.5663899982
 Ca         4.2072472213        5.0539077433        5.1300390639
 Ca         8.5628198859        0.2177119869        2.3999469009
 Ca        10.6067871407        5.0816632902        5.0569336961
 Ca         2.1643136547        0.2489353709        2.3944753680
 Ca         6.3871641124        1.4760245859        5.5142398084
  S         3.2657215690        1.5804084690        6.0154691674
  S         7.5242621565        4.9740873552        5.2285319803
  S        11.7582124532        0.4358255031        2.4257018553
  O         4.1831140404        0.3387364661        6.0985989925
  O         8.3171469572        5.4379033240        4.0426491634
  O        12.6291790443        1.1927589605        3.4149015622
  O         2.2338324508        1.3627595794        4.9137086173
  O         6.4923083011        6.0060022041        5.6556591092
  O        10.7462482361        6.5338440616        3.2045703639
  O         2.6200908389        5.2304460955        1.2067489395
  O         6.6997732209        3.7736389740        4.8071957517
  O        10.9481295205        1.4059893078        1.6318258738
  O         4.2850757935        2.6575904834        5.5163458924
  O         8.4797363353        4.6678514753        6.3287873633
  O        12.6993278207        6.4905058736        1.6650465351
  S         1.1793058119        4.9894499083        5.2955088494
  S         5.4117459536        0.3508056929        2.4152757902
  S         9.6533040310        1.5741838802        5.9286624178
  O         0.3478158808        3.7861583074        4.9715890401
  O         4.5546052849        1.2422061027        1.6095648891
  O         8.7729144596        5.3130968591        1.0798118732
  O         2.0375647231        5.3661799532        4.1146119563
  O         6.3189847291        1.1620027611        3.3335624953
  O        10.6030437825        0.3740604692        6.1314002974
  O         0.1683862667        6.0878292865        5.5994789472
  O         4.4609600710        6.4331663597        3.2795380612
  O         8.6719434129        1.3350221520        4.7517443840
  O         2.0896712689        4.7349595690        6.4552661544
  O         6.3069880017        6.3889014232        1.6333527714
  O        10.5971130305        2.7398771260        5.5767219129
  O         2.5393444607        2.7570676325        2.5894258384
  O         6.8496673304        3.6710022121        1.7493564182
  O        11.0755355151        3.9430515633        3.0315958393
  H         3.4083895610        2.6369679113        2.9834596597
  H         7.7395585755        3.5323399250        1.3774602541
  H        11.9098517408        4.3700131895        2.7930087699
  H         2.7215334299        3.3944676138        1.8649457045
  H         7.0412542594        4.0103574546        2.6393982247
  H        11.2453541927        3.0020398517        2.8699582120
 Ca        -0.0338175124        8.4917511746        5.5678679773
 Ca         4.2084365055       11.9782559301        5.1300339577
 Ca         8.5630206980        7.1452375892        2.4010574305
 Ca        10.6069983655       12.0060413002        5.0570063264
 Ca         2.1666223536        7.1781595977        2.3935306144
 Ca         6.3869664702        8.4029646723        5.5141662419
  S         3.2660368644        8.5066259805        6.0154551744
  S         7.5242759140       11.9012587598        5.2283553599
  S        11.7582199314        7.3609135765        2.4266386077
  O         4.1841719082        7.2649104278        6.0968987253
  O         8.3172962405       12.3653934768        4.0426563384
  O        12.6283704999        8.1215514502        3.4140027205
  O         2.2329496298        8.2896857777        4.9149142370
  O         6.4924459863       12.9332945400        5.6560895363
  O        10.7461621623       13.4619563371        3.2048326286
  O         2.6161078875       12.1581266472        1.2042600409
  O         6.6997923964       10.7009442249        4.8072773591
  O        10.9473797848        8.3309043595        1.6317812037
  O         4.2838453665        9.5850912022        5.5168327394
  O         8.4796972197       11.5952594208        6.3287308798
  O        12.6981068603       13.4162734332        1.6648210601
  S         1.1791797080       11.9166212378        5.2956612227
  S         5.4111014515        7.2782487223        2.4142807130
  S         9.6524925951        8.5012241266        5.9298106564
  O         0.3474076120       10.7138059949        4.9708514504
  O         4.5532426346        8.1704956776        1.6109473849
  O         8.7718129632       12.2389911334        1.0809717270
  O         2.0372359449       12.2934224920        4.1145719673
  O         6.3196307400        8.0880151217        3.3325119586
  O        10.6033926375        7.3014268396        6.1319758641
  O         0.1686994423       13.0155052750        5.5987381268
  O         4.4623207715       13.3597506247        3.2804396110
  O         8.6720343755        8.2614408329        4.7520592963
  O         2.0897155380       11.6624196025        6.4551373624
  O         6.3103325984       13.3164246374        1.6355100607
  O        10.5971474508        9.6662799674        5.5761366062
  O         2.5394797126        9.6845090693        2.5897775373
  O         6.8492916623       10.5950774961        1.7497602605
  O        11.0757994628       10.8705599228        3.0312929346
  H         3.4086453132        9.5624643905        2.9831646331
  H         7.7396108208       10.4590152087        1.3771918829
  H        11.9104868308       11.2969407141        2.7928457498
  H         2.7209315038       10.3208984859        1.8641841935
  H         7.0410972786       10.9374177267        2.6388437448
  H        11.2451453732        9.9292889279        2.8708315129
 Ca        12.7204864131        1.5654562071        5.5660888747
 Ca        16.9645634520        5.0507304937        5.1281443579
 Ca        21.3181795355        0.2152772198        2.3991755054
 Ca        23.3646400203        5.0801517479        5.0576361340
 Ca        14.9214738317        0.2514426714        2.3963882833
 Ca        19.1417228282        1.4759212957        5.5131812486
  S        16.0213566293        1.5804262015        6.0170679195
  S        20.2808068747        4.9741332058        5.2288469260
  S        24.5143262462        0.4355984411        2.4261645140